{"atomic_number":"13","element":"Aluminum","symbol":"Al","atomic_weight":"26.9815386","period":"3","group":"13","phase":"solid","most_stable_crystal":"fcc","type":"Metal","ionic_radius":"0.54","atomic_radius":"1.8","electronegativity":"1.61","first_ionization_potential":"5.9858","density":"2.698","melting_point_k":"933.4","boiling_point_k":"2792","isotopes":"8","discoverer":"Wï¿½hler","year_of_discovery":"1827","specific_heat_capacity":"0.897","electron_configuration":"[Ne] 3s2 3p1","display_row":"3","display_column":"13\r"}