{"Record":{"RecordType":"AtomicNumber","RecordNumber":103,"RecordTitle":"Lawrencium","Section":[{"TOCHeading":"Identifiers","Description":"Identifiers for this element, including element name, element symbol, InChI string, and InChIKey.","Section":[{"TOCHeading":"Element Name","Description":"The formal, standard name for a given element, originating from factors such as common usage and the person or place involved in its discovery. Element, also called chemical element, refers to a species of atom; all varieties of atoms with the same number of protons in the nucleus (but possibly a different number of neutrons) are considered to be the same element.","Information":[{"ReferenceNumber":1,"Name":"Element Name","Value":{"StringWithMarkup":[{"String":"Lawrencium"}]}},{"ReferenceNumber":3,"Name":"Element Name","Value":{"StringWithMarkup":[{"String":"Lawrencium"}]}}]},{"TOCHeading":"Element Symbol","Description":"Element symbol, also called atomic symbol, typically consists of one or two letters from the Latin alphabet derived from the element name in one of several languages.","Information":[{"ReferenceNumber":1,"Name":"Element Symbol","Value":{"StringWithMarkup":[{"String":"Lr"}]}},{"ReferenceNumber":3,"Name":"Element Symbol","Value":{"StringWithMarkup":[{"String":"Lr"}]}}]},{"TOCHeading":"InChI","Description":"The International Chemical Identifier (InChI) is a computed, non-proprietary identifier for a chemical structure.  The InChI is an International Union of Pure and Applied Chemistry (IUPAC) standard.","URL":"https://iupac.org/who-we-are/divisions/division-details/inchi/","Information":[{"ReferenceNumber":1,"Name":"InChI","Value":{"StringWithMarkup":[{"String":"InChI=1S/Lr"}]}}]},{"TOCHeading":"InChIKey","Description":"An InChIKey is a 27-character hashed code derived from an InChI.  The International Chemical Identifier (InChI) is a computed, non-proprietary identifier for a chemical structure.  The InChI is an International Union of Pure and Applied Chemistry (IUPAC) standard.","URL":"https://iupac.org/who-we-are/divisions/division-details/inchi/","Information":[{"ReferenceNumber":1,"Name":"InChI Key","Value":{"StringWithMarkup":[{"String":"CNQCVBJFEGMYDW-UHFFFAOYSA-N"}]}}]}]},{"TOCHeading":"Properties","Description":"Characteristics of this element, such as atomic number, atomic mass, density, melting point, boiling point and so on.","Section":[{"TOCHeading":"Atomic Weight","Description":"Also called relative atomic mass, is the ratio of the average mass of the atom to the unified atomic mass unit, defined as one twelfth of the mass of a carbon-12 atom in its ground state and used to express masses of atomic particles, u=1.660 5402(10) * 10**(-27) kg. The Standard atomic weights refer to recommended values of relative atomic masses of the elements revised biennially by the IUPAC Commission on Atomic Weights and Isotopic Abundances and applicable to elements in any normal sample with a high level of confidence. The number in the parenthesis refers to an uncertainty when exists. The unit of atomic weight is the dalton or unified atomic mass unit (symbol: Da or u).","Information":[{"ReferenceNumber":5,"Value":{"StringWithMarkup":[{"String":"262"}]}},{"ReferenceNumber":6,"Value":{"StringWithMarkup":[{"String":"262"}]}},{"ReferenceNumber":7,"Value":{"StringWithMarkup":[{"String":"Relative Mass: 262.10961(22#)"}]}}]},{"TOCHeading":"Electron Configuration","Description":"The electron configuration refers a distribution of the electrons of an atom or a molecular entity over a set of one-electron wavefunctions (called orbitals), according to the Pauli principle. From one configuration several states with different multiplicities may result.","URL":"https://chem.libretexts.org/Courses/Sacramento_City_College/SCC%3A_Chem_420_-_Organic_Chemistry_I/Text/01%3A_Introduction_and_Review/1.04%3A_Electron_Configurations","Information":[{"ReferenceNumber":6,"Value":{"StringWithMarkup":[{"String":"[Rn]7s25f146d1","Markup":[{"Start":6,"Length":1,"Type":"Superscript"},{"Start":9,"Length":2,"Type":"Superscript"},{"Start":13,"Length":1,"Type":"Superscript"}]}]}}]},{"TOCHeading":"Oxidation States","Description":"The oxidation state(s) that this element commonly has in a compound.  The oxidation state of an atom is defined as the hypothetical charge that would be held by that atom if all of its bonds to other atoms were completely ionic in nature. For example, the oxidation state of carbon in CO2 would be +4 since the hypothetical charge held by the carbon atom if both of the carbon-oxygen double bonds were completely ionic would be equal to +4 (each oxygen atom would hold a charge of -2 since oxygen is more electronegative than carbon).","URL":"https://chem.libretexts.org/Bookshelves/General_Chemistry/Map%3A_Chemistry_-_The_Central_Science_(Brown_et_al.)/20%3A_Electrochemistry/20.01%3A_Oxidation_States_and_Redox_Reactions","Information":[{"ReferenceNumber":5,"Value":{"StringWithMarkup":[{"String":"+3"}]}},{"ReferenceNumber":6,"Value":{"StringWithMarkup":[{"String":"3"}]}}]},{"TOCHeading":"Ground Level","Description":"Also called ground-state level. The ground state electron configuration is the arrangement of electrons around the nucleus of an atom with lower energy levels.","Information":[{"ReferenceNumber":7,"Value":{"StringWithMarkup":[{"String":"2P°1/2","Markup":[{"Start":0,"Length":1,"Type":"Superscript"},{"Start":3,"Length":3,"Type":"Subscript"}]}]}}]},{"TOCHeading":"Ionization Energy","Description":"Ionization energy, also called ionization potential, is the amount of energy required to remove an electron from an isolated atom or molecule.","URL":"https://www.britannica.com/science/ionization-energy","Information":[{"ReferenceNumber":7,"Reference":["First Ionization Potentials of Fm, Md, No, and Lr: Verification of Filling-Up of 5f Electrons and Confirmation of the Actinide Series, T. Sato, M. Asai, A. Borschevsky, R. Beerwerth, Y. Kaneya, H. Makii, A. Mitsukai, Y. Nagame, A. Osa, A. Toyoshima, K. Tsukada, M. Sakama, S. Takeda, K. Ooe, D. Sato, Y. Shigekawa, S.-i. Ichikawa, Ch. E. Düllmann, J. Grund, D. Renisch, J. V. Kratz, M. Schädel, E. Eliav, U. Kaldor, St. Fritzsche, and T. Stora, J. Am. Chem. Soc. 140, 14609–14613 (2018) DOI:10.1021/jacs.8b09068"],"Value":{"StringWithMarkup":[{"String":"4.96 ± 0.05 eV"}]}}]},{"TOCHeading":"Atomic Spectra","Description":"The spectrum of the electromagnetic radiation emitted or absorbed by an electron during transitions between different energy levels within an atom.","Information":[{"ReferenceNumber":7,"URL":"https://physics.nist.gov/cgi-bin/ASD/levels_hold.pl?el=Lr","Value":{"StringWithMarkup":[{"String":"Levels Holdings"}]}}]},{"TOCHeading":"Physical Description","Description":"The appearance or features of this element, including color, odor, state, taste and more in general.","Information":[{"ReferenceNumber":5,"Value":{"StringWithMarkup":[{"String":"Solid"}]}}]},{"TOCHeading":"Element Classification","Description":"Classification according to the element's chemical and physical properties, and location within the periodic table.","Information":[{"ReferenceNumber":5,"Value":{"StringWithMarkup":[{"String":"Metal"}]}}]},{"TOCHeading":"Element Period Number","Description":"The element period number refers to a horizontal row of the periodic table. The periodic table has 7 periods.","Information":[{"ReferenceNumber":5,"Value":{"StringWithMarkup":[{"String":"7"}]}}]},{"TOCHeading":"Element Group Number","Description":"Element group refers to a set of chemical elements in the same vertical column of the periodic table","Information":[{"ReferenceNumber":5,"Value":{"StringWithMarkup":[{"String":"3 - Actinide"}]}}]},{"TOCHeading":"Melting Point","Description":"This section provides the melting point and/or freezing point. The melting point is the temperature at which a substance changes state from solid to liquid at atmospheric pressure. When considered as the temperature of the reverse change (from liquid to solid), it is referred to as the freezing point.","URL":"https://chem.libretexts.org/Bookshelves/Organic_Chemistry/Organic_Chemistry_Lab_Techniques_(Nichols)/06%3A_Miscellaneous_Techniques/6.01%3A_Melting_Point","Information":[{"ReferenceNumber":5,"Value":{"StringWithMarkup":[{"String":"1900 K (1627°C or 2961°F)"}]}},{"ReferenceNumber":6,"Value":{"StringWithMarkup":[{"String":"1627°C"}]}}]},{"TOCHeading":"Estimated Crustal Abundance","Description":"The estimated element abundance in the earth's crust.","Information":[{"ReferenceNumber":5,"Value":{"StringWithMarkup":[{"String":"Not Applicable"}]}}]},{"TOCHeading":"Estimated Oceanic Abundance","Description":"The estimated element abundance in the earth's oceans.","Information":[{"ReferenceNumber":5,"Value":{"StringWithMarkup":[{"String":"Not Applicable"}]}}]}]},{"TOCHeading":"History","Description":"The history of the discovery and use of this element.","Information":[{"ReferenceNumber":5,"Value":{"StringWithMarkup":[{"String":"Lawrencium was created by four American scientists, Albert Ghiorso, Torbjørn Sikkeland, Almon E. Larsh and Robert M. Latimer, in March, 1961. Working at the Lawrence Radiation Laboratory in Berkeley, California, the scientists placed three micrograms (0.000003 grams) of californium in the target chamber of a device called a linear accelerator. The scientists used the accelerator to bombard the californium with boron ions. Several different isotopes of lawrencium were created and there is some confusion as to which isotope the group actually detected. Today, the Lawrence Radiation Laboratory is known as the Lawrence Berkeley Laboratory. Lawrencium's most stable isotope, lawrencium-262, has a half-life of about 4 hours. It decays into nobelium-262 through electron capture, mendelevium-258 through alpha decay or through spontaneous fission."}]}},{"ReferenceNumber":6,"Value":{"StringWithMarkup":[{"String":"Named after Lawrence, inventor of the cyclotron. This member of the 5f transition elements (actinide series) was discovered in March 1961 by A. Ghiorso, T. Sikkeland, A.E. Larsh, and R.M. Latimer. A 3-Mg californium target, consisting of a mixture of isotopes of mass number 249, 250, 251, and 252, was bombarded with either 10B or 11B. The electrically charged transmutation nuclei recoiled with an atmosphere of helium and were collected on a thin copper conveyor tape which was then moved to place collected atoms in front of a series of solid-state detectors. The isotope of element 103 produced in this way decayed by emitting an 8.6 MeV alpha particle with a half-life of 8 s.","Markup":[{"Start":325,"Length":2,"Type":"Superscript"},{"Start":332,"Length":2,"Type":"Superscript"}]},{"String":"In 1967, Flerov and associates at the Dubna Laboratory reported their inability to detect an alpha emitter with a half-life of 8 s which was assigned by the Berkeley group to 257103. This assignment has been changed to 258Lr or 259Lr.","Markup":[{"Start":175,"Length":3,"Type":"Superscript"},{"Start":219,"Length":3,"Type":"Superscript"},{"Start":228,"Length":3,"Type":"Superscript"}]},{"String":"In 1965, the Dubna workers found a longer-lived lawrencium isotope, 256Lr, with a half-life of 35 s. In 1968, Thiorso and associates at Berkeley used a few atoms of this isotope to study the oxidation behavior of lawrencium. Using solvent extraction techniques and working very rapidly, they extracted lawrencium ions from a buffered aqueous solution into an organic solvent  completing each extraction in about 30 s.","Markup":[{"Start":68,"Length":3,"Type":"Superscript"}]}]}}]},{"TOCHeading":"Description","Description":"A short description of this element, provided by authoritative sources.","Information":[{"ReferenceNumber":4,"Reference":["[636]  R. J. Silva. “Fermium, Mendelevium, Nobelium, and Lawrencium”, in The Chemistry of the Actinide and Transactinide Elements, L. R. Morss, N. M. Edelstein, J. Fuger (Eds.), Springer, Berlin, Germany (2006).","[640]  WebElements Ltd. Lawrencium: the essentials, WebElements Ltd (2016), April 10; https://www.webelements.com/lawrencium/.","[641]  Los Alamos National Laboratory. Periodic Table of Elements: LANL-Lawrencium, Los Alamos National Laboratory (2014), Feb. 25; http://periodic.lanl.gov/103.shtml.","[642]  T. H. Maugh II. “Albert ghiorso dies at 95; engineer played crucial role in discovery of 12 elements”, in Los Angeles Times, Eddy Hartenstein (2011), January 16, 2011. http://articles.latimes.com/2011/jan/16/local/la-me-albert-ghiorso-20110116.","[643]  Lawrence Berkeley National Laboratory. Today At Berkeley Lab-This Month in Lab History...Lawrencium Added to Periodic Table, Lawrence Berkeley National Laboratory (2017), April 8; http://today.lbl.gov/2013/04/09/this-month-in-lab-historylawrencium-added-to-periodic-table/.","[644]  Lawrence Berkeley National Laboratory. E. O. Lawrence, Lawrence Berkeley National Laboratory (2017), April 8; http://www.lbl.gov/nobelists/1939-ernest-orlando-lawrence/."],"Value":{"StringWithMarkup":[{"String":"Lawrencium does not occur naturally in the Earth’s crust. Credit for the first synthesis of this element in 1971 is given jointly to Albert Ghiorso and his team at the University of California in Berkeley and Georgi Flerov and his team at the Joint Institute for Nuclear Research (JINR) in Dubna, Russia (Fig. IUPAC.103.1). The element is named for Ernest O. Lawrence (Fig. IUPAC.103.2), who developed the cyclotron. The chemical symbol for lawrencium was originally proposed as Lw. At the IUPAC General Assembly in 1963, lawrencium was officially accepted by IUPAC, but the symbol was changed to Lr because the Commission on Inorganic Nomenclature determined that the letter ‘w’ presented a problem in languages other than English [636], [640], [641], [642]. There are no known isotopic applications for lawrencium outside of scientific research."},{"String":"          ","Markup":[{"Start":0,"Length":1,"URL":"https://pubchem.ncbi.nlm.nih.gov/images/iupac/j_pac-2015-0703_fig_138.jpg","Type":"Image","Size":"969x544","Caption":"Fig. IUPAC.103.1: The team that discovered lawrencium: Torbjorn Sikkeland, Albert Ghiorso, Almon E. ‘Bud’ Larsh, and Robert M. Latimer. (Photo Source: Dr. Glenn T. Seaborg, Lawrence Berkeley National Laboratory) [643]. "}]},{"String":"          ","Markup":[{"Start":0,"Length":1,"URL":"https://pubchem.ncbi.nlm.nih.gov/images/iupac/j_pac-2015-0703_fig_139.jpg","Type":"Image","Size":"969x1257","Caption":"Fig. IUPAC.103.2: This is a photograph of Ernst O. Lawrence, who invented the cyclotron. Element 103 is named after him. (Photo Source: U.S. Department of Energy, Lawrence Berkeley National Laboratory) [644]. "}]}]}},{"ReferenceNumber":6,"Value":{"StringWithMarkup":[{"String":"Lawrencium behaves differently from dipositive nobelium and more like the tripositive elements earlier in the actinide series."}]}}]},{"TOCHeading":"Uses","Description":"Uses of this element in industry and other fields.","Information":[{"ReferenceNumber":5,"Value":{"StringWithMarkup":[{"String":"Since only tiny amounts of lawrencium have ever been produced, there are currently no uses for it outside of basic scientific research."}]}}]},{"TOCHeading":"Compounds","Description":"Compound records related to this element.","Information":[{"ReferenceNumber":8,"Name":"Compounds","URL":"https://pubchem.ncbi.nlm.nih.gov/compound/Lawrencium","Value":{"StringWithMarkup":[{"String":"See more information at the Lawrencium compound page."}]}}],"Section":[{"TOCHeading":"Element Forms","Description":"Other forms of this element, including ions, isotopes, etc.","DisplayControls":{"CreateTable":{"FromInformationIn":"ThisSection","NumberOfColumns":5,"ColumnsFromNamedLists":{"Name":["CID","Name","Formula","SMILES","Molecular Weight"],"UseNamesAsColumnHeadings":true}}},"Information":[{"ReferenceNumber":8,"Name":"CID","Value":{"StringWithMarkup":[{"String":"31192","Markup":[{"Start":0,"Length":5,"URL":"https://pubchem.ncbi.nlm.nih.gov/compound/31192"}]}]}},{"ReferenceNumber":8,"Name":"Name","Value":{"StringWithMarkup":[{"String":"lawrencium"}]}},{"ReferenceNumber":8,"Name":"Formula","Value":{"StringWithMarkup":[{"String":"Lr"}]}},{"ReferenceNumber":8,"Name":"SMILES","Value":{"StringWithMarkup":[{"String":"[Lr]"}]}},{"ReferenceNumber":8,"Name":"Molecular Weight","Value":{"StringWithMarkup":[{"String":"261.107"}]}}]}]},{"TOCHeading":"Isotopes","Description":"Isotopes are nuclides having the same atomic number but different mass numbers.  This section provides information on the isotopes of this element and their uses in various fields.","URL":"https://chem.libretexts.org/Courses/Furman_University/CHM101%3A_Chemistry_and_Global_Awareness_(Gordon)/03%3A_Atoms_and_the_Periodic_Table/3.05%3A_Isotopes","Information":[{"ReferenceNumber":5,"Name":"Stable Isotope Count","Value":{"StringWithMarkup":[{"String":"0"}]}}],"Section":[{"TOCHeading":"Isotope Mass and Abundance","Description":"Atomic mass and abundance (composition) information for a given isotope/nuclide. The number in the parenthesis refers to an uncertainty when exist. The unit of atomic weight is the unified atomic mass unit (u) or dalton (Da). ","DisplayControls":{"CreateTable":{"FromInformationIn":"ThisSection","NumberOfColumns":3,"ColumnsFromNamedLists":{"Name":["Isotope","Atomic Mass (uncertainty) [u]","Abundance (uncertainty)"],"UseNamesAsColumnHeadings":true}}},"Information":[{"ReferenceNumber":7,"Name":"Isotope","Value":{"StringWithMarkup":[{"String":"262Lr","Markup":[{"Start":0,"Length":3,"Type":"Superscript"}]}]}},{"ReferenceNumber":7,"Name":"Atomic Mass (uncertainty) [u]","Value":{"StringWithMarkup":[{"String":"262.10961(22#)"}]}},{"ReferenceNumber":7,"Name":"Abundance (uncertainty)","Value":{"StringWithMarkup":[{"String":""}]}}]},{"TOCHeading":"Atomic Mass, Half Life, and Decay","Description":"Information on the atomic mass, half life, and decay for this element, from the the Atomic Mass Data Center. The number after the ± refers to an uncertainty when exists.","URL":"https://amdc.impcas.ac.cn/","DisplayControls":{"CreateTable":{"FromInformationIn":"ThisSection","NumberOfColumns":5,"ColumnsFromNamedLists":{"Name":["Nuclide","Atomic Mass and Uncertainty [u]","Half Life and Uncertainty","Discovery Year","Decay Modes, Intensities and Uncertainties [%]"],"UseNamesAsColumnHeadings":true}}},"Information":[{"ReferenceNumber":2,"Name":"Nuclide","Value":{"StringWithMarkup":[{"String":"251Lr","Markup":[{"Start":0,"Length":3,"Type":"Superscript"}]},{"String":"252Lr","Markup":[{"Start":0,"Length":3,"Type":"Superscript"}]},{"String":"252Lrp","Markup":[{"Start":0,"Length":3,"Type":"Superscript"},{"Start":5,"Length":1,"Type":"Superscript"}]},{"String":"253Lr","Markup":[{"Start":0,"Length":3,"Type":"Superscript"}]},{"String":"253Lrm","Markup":[{"Start":0,"Length":3,"Type":"Superscript"},{"Start":5,"Length":1,"Type":"Superscript"}]},{"String":"254Lr","Markup":[{"Start":0,"Length":3,"Type":"Superscript"}]},{"String":"254Lrm","Markup":[{"Start":0,"Length":3,"Type":"Superscript"},{"Start":5,"Length":1,"Type":"Superscript"}]},{"String":"255Lr","Markup":[{"Start":0,"Length":3,"Type":"Superscript"}]},{"String":"255Lrm","Markup":[{"Start":0,"Length":3,"Type":"Superscript"},{"Start":5,"Length":1,"Type":"Superscript"}]},{"String":"255Lrn","Markup":[{"Start":0,"Length":3,"Type":"Superscript"},{"Start":5,"Length":1,"Type":"Superscript"}]},{"String":"255Lrp","Markup":[{"Start":0,"Length":3,"Type":"Superscript"},{"Start":5,"Length":1,"Type":"Superscript"}]},{"String":"256Lr","Markup":[{"Start":0,"Length":3,"Type":"Superscript"}]},{"String":"256Lrp","Markup":[{"Start":0,"Length":3,"Type":"Superscript"},{"Start":5,"Length":1,"Type":"Superscript"}]},{"String":"257Lr","Markup":[{"Start":0,"Length":3,"Type":"Superscript"}]},{"String":"257Lrm","Markup":[{"Start":0,"Length":3,"Type":"Superscript"},{"Start":5,"Length":1,"Type":"Superscript"}]},{"String":"257Lrp","Markup":[{"Start":0,"Length":3,"Type":"Superscript"},{"Start":5,"Length":1,"Type":"Superscript"}]},{"String":"258Lr","Markup":[{"Start":0,"Length":3,"Type":"Superscript"}]},{"String":"258Lrp","Markup":[{"Start":0,"Length":3,"Type":"Superscript"},{"Start":5,"Length":1,"Type":"Superscript"}]},{"String":"259Lr","Markup":[{"Start":0,"Length":3,"Type":"Superscript"}]},{"String":"260Lr","Markup":[{"Start":0,"Length":3,"Type":"Superscript"}]},{"String":"261Lr","Markup":[{"Start":0,"Length":3,"Type":"Superscript"}]},{"String":"262Lr","Markup":[{"Start":0,"Length":3,"Type":"Superscript"}]},{"String":"263Lr","Markup":[{"Start":0,"Length":3,"Type":"Superscript"}]},{"String":"264Lr","Markup":[{"Start":0,"Length":3,"Type":"Superscript"}]},{"String":"265Lr","Markup":[{"Start":0,"Length":3,"Type":"Superscript"}]},{"String":"266Lr","Markup":[{"Start":0,"Length":3,"Type":"Superscript"}]}]}},{"ReferenceNumber":2,"Name":"Atomic Mass and Uncertainty [u]","Value":{"StringWithMarkup":[{"String":"251.094289 ± 0.000215 [Estimated]"},{"String":"252.095048 ± 0.000198 [Estimated]"},{"String":"252.095048 ± 0.000198 [Estimated]"},{"String":"253.095033850 ± 0.000176634"},{"String":"253.095033850 ± 0.000176634"},{"String":"254.096238813 ± 0.000098026"},{"String":"254.096238813 ± 0.000098026"},{"String":"255.096562399 ± 0.000019"},{"String":"255.096562399 ± 0.000019"},{"String":"255.096562399 ± 0.000019"},{"String":"255.096562399 ± 0.000019"},{"String":"256.098494024 ± 0.000089"},{"String":"256.098494024 ± 0.000089"},{"String":"257.099480 ± 0.000047 [Estimated]"},{"String":"257.099480 ± 0.000047 [Estimated]"},{"String":"257.099480 ± 0.000047 [Estimated]"},{"String":"258.101753 ± 0.000109 [Estimated]"},{"String":"258.101753 ± 0.000109 [Estimated]"},{"String":"259.102900 ± 0.000076 [Estimated]"},{"String":"260.105504 ± 0.000134 [Estimated]"},{"String":"261.106879 ± 0.000215 [Estimated]"},{"String":"262.109615 ± 0.000215 [Estimated]"},{"String":"263.111293 ± 0.00024 [Estimated]"},{"String":"264.114198 ± 0.000468 [Estimated]"},{"String":"265.116193 ± 0.000587 [Estimated]"},{"String":"266.119874 ± 0.000579 [Estimated]"}]}},{"ReferenceNumber":2,"Name":"Half Life and Uncertainty","Value":{"StringWithMarkup":[{"String":"300 us [Estimated]"},{"String":"369 ms ± 75"},{"String":"Not-specified"},{"String":"632 ms ± 46"},{"String":"1.32 s ± 0.14"},{"String":"12.0 s ± 0.9"},{"String":"20.3 s ± 4.1"},{"String":"31.1 s ± 1.1"},{"String":"2.54 s ± 0.05"},{"String":"<1 us"},{"String":"1.78 ms ± 0.05"},{"String":"27.9 s ± 1.0"},{"String":"Not-specified"},{"String":"6.0 s ± 0.4"},{"String":"0.27 s ± 0.12"},{"String":"Not-specified"},{"String":"3.92 s ± 0.33"},{"String":"Not-specified"},{"String":"6.2 s ± 0.3"},{"String":"3.0 m ± 0.5"},{"String":"39 m ± 12"},{"String":"~4 h"},{"String":"5 h [Estimated]"},{"String":"10 h [Estimated]"},{"String":"10 h [Estimated]"},{"String":"22 h ± 14"}]}},{"ReferenceNumber":2,"Name":"Discovery Year","Value":{"StringWithMarkup":[{"String":""},{"String":"2001"},{"String":""},{"String":"1985"},{"String":"1985"},{"String":"1981"},{"String":"2019"},{"String":"1971"},{"String":"2006"},{"String":"2009"},{"String":"2008"},{"String":"1965"},{"String":""},{"String":"1971"},{"String":"2018"},{"String":""},{"String":"1971"},{"String":""},{"String":"1971"},{"String":"1971"},{"String":"1987"},{"String":"1987"},{"String":""},{"String":""},{"String":""},{"String":"2014"}]}},{"ReferenceNumber":2,"Name":"Decay Modes, Intensities and Uncertainties [%]","Value":{"StringWithMarkup":[{"String":"β+ ?; α ?","Markup":[{"Start":1,"Length":1,"Type":"Superscript"}]},{"String":"α≈98%; SF≈2%; β+ ?","Markup":[{"Start":15,"Length":1,"Type":"Superscript"}]},{"String":""},{"String":"α=90±1%; SF=1.0±0.6%; β+ ?","Markup":[{"Start":23,"Length":1,"Type":"Superscript"}]},{"String":"α=90±1%; SF=12±0.3%; β+ ?; IT ?","Markup":[{"Start":22,"Length":1,"Type":"Superscript"}]},{"String":"α=71.7±1.9%; β+=28.3±1.9%; SF<0.1%","Markup":[{"Start":14,"Length":1,"Type":"Superscript"}]},{"String":"α=?; β+ ?; IT ?","Markup":[{"Start":6,"Length":1,"Type":"Superscript"}]},{"String":"α=99.7±0.1%; β+=0.3±0.1%; SF ?","Markup":[{"Start":14,"Length":1,"Type":"Superscript"}]},{"String":"IT ?; α≈40%"},{"String":"IT≈100%"},{"String":"IT≈100%; α<0.15%"},{"String":"α=85±1%; β+=15±1%; SF<0.03%","Markup":[{"Start":10,"Length":1,"Type":"Superscript"}]},{"String":""},{"String":"α≈100%; β+ ?; SF ?","Markup":[{"Start":9,"Length":1,"Type":"Superscript"}]},{"String":"α ?; IT ?"},{"String":""},{"String":"α=97.4±1.8%; β+=2.6±1.8%","Markup":[{"Start":14,"Length":1,"Type":"Superscript"}]},{"String":""},{"String":"α=78±0.2%; SF=22±0.2%; β+ ?","Markup":[{"Start":24,"Length":1,"Type":"Superscript"}]},{"String":"α=80±2%; β+=20±2%","Markup":[{"Start":10,"Length":1,"Type":"Superscript"}]},{"String":"SF≈100%; α ?"},{"String":"β+=?; SF<10%; α ?","Markup":[{"Start":1,"Length":1,"Type":"Superscript"}]},{"String":"α ?"},{"String":"α ?; SF ?"},{"String":"α ?; SF ?"},{"String":"SF=100%"}]}}]}]}],"Reference":[{"ReferenceNumber":1,"SourceName":"PubChem","SourceID":"PubChem","Description":"Data deposited in or computed by PubChem","URL":"https://pubchem.ncbi.nlm.nih.gov"},{"ReferenceNumber":2,"SourceName":"Atomic Mass Data Center (AMDC), International Atomic Energy Agency (IAEA)","SourceID":"e103","Name":"Lr","Description":"The half-life and atomic mass data was provided by the Atomic Mass Data Center at the International Atomic Energy Agency.","URL":"https://www-nds.iaea.org/amdc/","LicenseURL":"https://www-nds.iaea.org/disclaimer.html","ANID":6590330},{"ReferenceNumber":3,"SourceName":"Commission on Isotopic Abundances and Atomic Weights (CIAAW), International Union of Pure and Applied Chemistry (IUPAC)","SourceID":"a103","Name":"Lawrencium","Description":"Element data are cited from the Atomic weights of the elements (an IUPAC Technical Report). The IUPAC periodic table of elements can be found at https://iupac.org/what-we-do/periodic-table-of-elements/. Additional information can be found within IUPAC publication doi:10.1515/pac-2015-0703 Copyright © 2020 International Union of Pure and Applied Chemistry.","URL":"https://www.ciaaw.org/","LicenseURL":"http://www.ciaaw.org/bylaws.htm","ANID":2292484},{"ReferenceNumber":4,"SourceName":"IUPAC Periodic Table of the Elements and Isotopes (IPTEI)","SourceID":"p103","Description":"The information are cited from Pure Appl. Chem. 2018; 90(12): 1833-2092, https://doi.org/10.1515/pac-2015-0703.","URL":"https://doi.org/10.1515/pac-2015-0703","LicenseNote":"Copyright © 2020 International Union of Pure and Applied Chemistry.\n\nThe International Union of Pure and Applied Chemistry (IUPAC) contribution within Pubchem is provided under a CC-BY-NC-ND 4.0 license, unless otherwise stated. \nhttps://creativecommons.org/licenses/by-nc-nd/4.0/","ANID":13296508},{"ReferenceNumber":6,"SourceName":"Los Alamos National Laboratory, U.S. Department of Energy","SourceID":"lanl103","Name":"Lawrencium","Description":"The periodic table at the LANL (Los Alamos National Laboratory) contains basic element information together with the history, source, properties, use, handling and more. The provenance data may be found from the link under the source name.","URL":"https://periodic.lanl.gov/103.shtml","ANID":507283},{"ReferenceNumber":5,"SourceName":"Jefferson Lab, U.S. Department of Energy","SourceID":"jlab103","Name":"Lawrencium","Description":"Thomas Jefferson National Accelerator Facility (Jefferson Lab) is one of 17 national laboratories funded by the U.S. Department of Energy. The lab's primary mission is to conduct basic research of the atom's nucleus using the lab's unique particle accelerator, known as the Continuous Electron Beam Accelerator Facility (CEBAF). For more information visit https://www.jlab.org/","URL":"https://education.jlab.org/itselemental/ele103.html","LicenseNote":"Please see citation and linking information: https://education.jlab.org/faq/index.html","LicenseURL":"https://www.jlab.org/privacy-and-security-notice","ANID":507165},{"ReferenceNumber":7,"SourceName":"NIST Physical Measurement Laboratory","SourceID":"e103","Name":"Lawrencium","Description":"The periodic table contains NIST's critically-evaluated data on atomic properties of the elements. The provenance data that include data for atomic spectroscopy, X-ray and gamma ray, radiation dosimetry, nuclear physics, and condensed matter physics may be found from the link under the source name. Ref: https://www.nist.gov/pml/atomic-spectra-database","URL":"https://physics.nist.gov/cgi-bin/Elements/elInfo.pl?element=103","LicenseURL":"https://www.nist.gov/pml/database-disclaimer","ANID":2292720},{"ReferenceNumber":8,"SourceName":"PubChem","SourceID":"103","Name":"Lawrencium","Description":"This section provides all form of data related to element Lawrencium.","ANID":694396}]}}