{"Record":{"RecordType":"AtomicNumber","RecordNumber":107,"RecordTitle":"Bohrium","Section":[{"TOCHeading":"Identifiers","Description":"Identifiers for this element, including element name, element symbol, InChI string, and InChIKey.","Section":[{"TOCHeading":"Element Name","Description":"The formal, standard name for a given element, originating from factors such as common usage and the person or place involved in its discovery. Element, also called chemical element, refers to a species of atom; all varieties of atoms with the same number of protons in the nucleus (but possibly a different number of neutrons) are considered to be the same element.","Information":[{"ReferenceNumber":1,"Name":"Element Name","Value":{"StringWithMarkup":[{"String":"Bohrium"}]}},{"ReferenceNumber":3,"Name":"Element Name","Value":{"StringWithMarkup":[{"String":"Bohrium"}]}}]},{"TOCHeading":"Element Symbol","Description":"Element symbol, also called atomic symbol, typically consists of one or two letters from the Latin alphabet derived from the element name in one of several languages.","Information":[{"ReferenceNumber":1,"Name":"Element Symbol","Value":{"StringWithMarkup":[{"String":"Bh"}]}},{"ReferenceNumber":3,"Name":"Element Symbol","Value":{"StringWithMarkup":[{"String":"Bh"}]}}]},{"TOCHeading":"InChI","Description":"The International Chemical Identifier (InChI) is a computed, non-proprietary identifier for a chemical structure.  The InChI is an International Union of Pure and Applied Chemistry (IUPAC) standard.","URL":"https://iupac.org/who-we-are/divisions/division-details/inchi/","Information":[{"ReferenceNumber":1,"Name":"InChI","Value":{"StringWithMarkup":[{"String":"InChI=1S/Bh"}]}}]},{"TOCHeading":"InChIKey","Description":"An InChIKey is a 27-character hashed code derived from an InChI.  The International Chemical Identifier (InChI) is a computed, non-proprietary identifier for a chemical structure.  The InChI is an International Union of Pure and Applied Chemistry (IUPAC) standard.","URL":"https://iupac.org/who-we-are/divisions/division-details/inchi/","Information":[{"ReferenceNumber":1,"Name":"InChI Key","Value":{"StringWithMarkup":[{"String":"INOXRQQPOOCQPH-UHFFFAOYSA-N"}]}}]}]},{"TOCHeading":"Properties","Description":"Characteristics of this element, such as atomic number, atomic mass, density, melting point, boiling point and so on.","Section":[{"TOCHeading":"Atomic Weight","Description":"Also called relative atomic mass, is the ratio of the average mass of the atom to the unified atomic mass unit, defined as one twelfth of the mass of a carbon-12 atom in its ground state and used to express masses of atomic particles, u=1.660 5402(10) * 10**(-27) kg. The Standard atomic weights refer to recommended values of relative atomic masses of the elements revised biennially by the IUPAC Commission on Atomic Weights and Isotopic Abundances and applicable to elements in any normal sample with a high level of confidence. The number in the parenthesis refers to an uncertainty when exists. The unit of atomic weight is the dalton or unified atomic mass unit (symbol: Da or u).","Information":[{"ReferenceNumber":5,"Value":{"StringWithMarkup":[{"String":"270"}]}},{"ReferenceNumber":6,"Value":{"StringWithMarkup":[{"String":"270"}]}},{"ReferenceNumber":7,"Value":{"StringWithMarkup":[{"String":"Relative Mass: 272.13826(58#)"}]}}]},{"TOCHeading":"Electron Configuration","Description":"The electron configuration refers a distribution of the electrons of an atom or a molecular entity over a set of one-electron wavefunctions (called orbitals), according to the Pauli principle. From one configuration several states with different multiplicities may result.","URL":"https://chem.libretexts.org/Courses/Sacramento_City_College/SCC%3A_Chem_420_-_Organic_Chemistry_I/Text/01%3A_Introduction_and_Review/1.04%3A_Electron_Configurations","Information":[{"ReferenceNumber":6,"Value":{"StringWithMarkup":[{"String":"[Rn]7s25f146d5","Markup":[{"Start":6,"Length":1,"Type":"Superscript"},{"Start":9,"Length":2,"Type":"Superscript"},{"Start":13,"Length":1,"Type":"Superscript"}]}]}}]},{"TOCHeading":"Atomic Radius","Description":"The atomic radius of a chemical element is a measure of the size of its atom, usually, the distance from the center of the nucleus to the outermost isolated electron.  Because an atom does not have a discrete boundary, there are various non-equivalent definitions of atomic radius, such as Van der Waals radius and covalent radius.","Information":[{"ReferenceNumber":6,"Name":"Empirical Atomic Radius","Value":{"StringWithMarkup":[{"String":"empirical: 128 pm (predicted)"}]}}]},{"TOCHeading":"Oxidation States","Description":"The oxidation state(s) that this element commonly has in a compound.  The oxidation state of an atom is defined as the hypothetical charge that would be held by that atom if all of its bonds to other atoms were completely ionic in nature. For example, the oxidation state of carbon in CO2 would be +4 since the hypothetical charge held by the carbon atom if both of the carbon-oxygen double bonds were completely ionic would be equal to +4 (each oxygen atom would hold a charge of -2 since oxygen is more electronegative than carbon).","URL":"https://chem.libretexts.org/Bookshelves/General_Chemistry/Map%3A_Chemistry_-_The_Central_Science_(Brown_et_al.)/20%3A_Electrochemistry/20.01%3A_Oxidation_States_and_Redox_Reactions","Information":[{"ReferenceNumber":6,"Value":{"StringWithMarkup":[{"String":"7, (5), (4), (3) ​(parenthesized oxidation states are predictions)"}]}}]},{"TOCHeading":"Ground Level","Description":"Also called ground-state level. The ground state electron configuration is the arrangement of electrons around the nucleus of an atom with lower energy levels.","Information":[{"ReferenceNumber":7,"Value":{"StringWithMarkup":[{"String":"5/2"}]}}]},{"TOCHeading":"Ionization Energy","Description":"Ionization energy, also called ionization potential, is the amount of energy required to remove an electron from an isolated atom or molecule.","URL":"https://www.britannica.com/science/ionization-energy","Information":[{"ReferenceNumber":7,"Reference":["Ionization Potentials and Radii of Neutral and Ionized Species of Elements 107 (Bohrium) and 108 (Hassium) from Extended Multiconfiguration Dirac-Fock Calculations, E. Johnson, B. Fricke, T. Jacob, C. Z. Dong, S. Fritzsche, and V. Pershina, J. Chem. Phys. 116, 1862–1868 (2002) DOI:10.1063/1.1430256"],"Value":{"StringWithMarkup":[{"String":"7.7 ± 0.5 eV  (The level was determined by interpolation or extrapolation of known experimental values or by semiempirical calculation; its absolutre accuracy is reflected in the number of significant figures assigned to it.)"}]}}]},{"TOCHeading":"Atomic Spectra","Description":"The spectrum of the electromagnetic radiation emitted or absorbed by an electron during transitions between different energy levels within an atom.","Information":[{"ReferenceNumber":7,"URL":"https://physics.nist.gov/cgi-bin/ASD/levels_hold.pl?el=Bh","Value":{"StringWithMarkup":[{"String":"Levels Holdings"}]}}]},{"TOCHeading":"Physical Description","Description":"The appearance or features of this element, including color, odor, state, taste and more in general.","Information":[{"ReferenceNumber":5,"Value":{"StringWithMarkup":[{"String":"Solid"}]}}]},{"TOCHeading":"Element Classification","Description":"Classification according to the element's chemical and physical properties, and location within the periodic table.","Information":[{"ReferenceNumber":5,"Value":{"StringWithMarkup":[{"String":"Metal"}]}}]},{"TOCHeading":"Element Period Number","Description":"The element period number refers to a horizontal row of the periodic table. The periodic table has 7 periods.","Information":[{"ReferenceNumber":5,"Value":{"StringWithMarkup":[{"String":"7"}]}}]},{"TOCHeading":"Element Group Number","Description":"Element group refers to a set of chemical elements in the same vertical column of the periodic table","Information":[{"ReferenceNumber":5,"Value":{"StringWithMarkup":[{"String":"7"}]}}]},{"TOCHeading":"Estimated Crustal Abundance","Description":"The estimated element abundance in the earth's crust.","Information":[{"ReferenceNumber":5,"Value":{"StringWithMarkup":[{"String":"Not Applicable"}]}}]},{"TOCHeading":"Estimated Oceanic Abundance","Description":"The estimated element abundance in the earth's oceans.","Information":[{"ReferenceNumber":5,"Value":{"StringWithMarkup":[{"String":"Not Applicable"}]}}]}]},{"TOCHeading":"History","Description":"The history of the discovery and use of this element.","Information":[{"ReferenceNumber":5,"Value":{"StringWithMarkup":[{"String":"First produced in 1976 by scientists working at the Joint Institute for Nuclear Research in Dubna, Russia, and later confirmed in 1981 by Peter Armbruster, Gottfried Münzenber and their team working at the Gesellschaft für Schwerionenforschung in Darmstadt, Germany, bohrium was produced by bombarding a target of bismuth-209 with ions of chromium-54. Bohrium's most stable isotope, bohrium-270, has a half-life of about 1 minute. It decays into dubnium-266 through alpha decay."}]}},{"ReferenceNumber":6,"Value":{"StringWithMarkup":[{"String":"Formally known as Ns, Nielsbohrium"},{"String":"In 1976 Soviet scientists at Dubna announced they had synthesized element 107 by bombarding 204Bi with heavy nuclei of 54Cr. Reports say that experiments in 1975 had allowed scientists \"to glimpse\" the new element for 2/1000 s. A rapidly rotating cylinder, coated with a thin layer of bismuth metal, was used as a target. This was bombarded by a stream of 54Cr ions fired tangentially.","Markup":[{"Start":92,"Length":3,"Type":"Superscript"},{"Start":119,"Length":2,"Type":"Superscript"},{"Start":356,"Length":2,"Type":"Superscript"}]},{"String":"The existence of element 107 was confirmed by a team of West German physicists at the Heavy Ion Research Laboratory at Darmstadt, who created and identified six nuclei of element 107."}]}}]},{"TOCHeading":"Description","Description":"A short description of this element, provided by authoritative sources.","Information":[{"ReferenceNumber":4,"Reference":["[649]  Science Education at Jefferson Lab. It’s Elemental – The Element Bohrium, Science Education at Jefferson Lab (2014), Feb. 25; http://education.jlab.org/itselemental/ele107.html.","[650]  Los Alamos National Laboratory. Periodic Table of Elements: LANL-Bohrium, Los Alamos National Laboratory (2014), Feb. 25; http://periodic.lanl.gov/107.shtml."],"Value":{"StringWithMarkup":[{"String":"Bohrium does not occur naturally in the Earth’s crust. Bohrium was first synthesized by German scientists at the GSI Center for Heavy Ion Research in Darmstadt, Germany in 1981 using the nuclear reaction 209Bi (54Cr, n) 262Bh. The element is named for Niels Bohr (Fig. IUPAC.107.1), the Nobel Prize winning physicist [649], [650]. Bohrium has no known isotopic applications aside from scientific research.","Markup":[{"Start":204,"Length":3,"Type":"Superscript"},{"Start":211,"Length":2,"Type":"Superscript"},{"Start":220,"Length":3,"Type":"Superscript"}]},{"String":"          ","Markup":[{"Start":0,"Length":1,"URL":"https://pubchem.ncbi.nlm.nih.gov/images/iupac/j_pac-2015-0703_fig_143.jpg","Type":"Image","Size":"969x633","Caption":"Fig. IUPAC.107.1: Ernest Lawrence (left) and Niels Bohr (right) are pictured above. Niels Bohr’s work on the structure of atoms won him the Nobel Prize in Physics in 1922. (Photo Source: © 2010 The Regents of the University of California, Lawrence Berkeley National Laboratory). "}]}]}},{"ReferenceNumber":6,"Value":{"StringWithMarkup":[{"String":"Bohrium is named after Niels Bohr."}]}}]},{"TOCHeading":"Uses","Description":"Uses of this element in industry and other fields.","Information":[{"ReferenceNumber":5,"Value":{"StringWithMarkup":[{"String":"Since only a few atoms of bohrium have ever been made, there are currently no uses for bohrium outside of basic scientific research."}]}}]},{"TOCHeading":"Compounds","Description":"Compound records related to this element.","Information":[{"ReferenceNumber":8,"Name":"Compounds","URL":"https://pubchem.ncbi.nlm.nih.gov/compound/Bohrium","Value":{"StringWithMarkup":[{"String":"See more information at the Bohrium compound page."}]}}],"Section":[{"TOCHeading":"Element Forms","Description":"Other forms of this element, including ions, isotopes, etc.","DisplayControls":{"CreateTable":{"FromInformationIn":"ThisSection","NumberOfColumns":5,"ColumnsFromNamedLists":{"Name":["CID","Name","Formula","SMILES","Molecular Weight"],"UseNamesAsColumnHeadings":true}}},"Information":[{"ReferenceNumber":8,"Name":"CID","Value":{"StringWithMarkup":[{"String":"56951713","Markup":[{"Start":0,"Length":8,"URL":"https://pubchem.ncbi.nlm.nih.gov/compound/56951713"}]}]}},{"ReferenceNumber":8,"Name":"Name","Value":{"StringWithMarkup":[{"String":"bohrium"}]}},{"ReferenceNumber":8,"Name":"Formula","Value":{"StringWithMarkup":[{"String":"Bh"}]}},{"ReferenceNumber":8,"Name":"SMILES","Value":{"StringWithMarkup":[{"String":"[Bh]"}]}},{"ReferenceNumber":8,"Name":"Molecular Weight","Value":{"StringWithMarkup":[{"String":"270.133"}]}}]}]},{"TOCHeading":"Isotopes","Description":"Isotopes are nuclides having the same atomic number but different mass numbers.  This section provides information on the isotopes of this element and their uses in various fields.","URL":"https://chem.libretexts.org/Courses/Furman_University/CHM101%3A_Chemistry_and_Global_Awareness_(Gordon)/03%3A_Atoms_and_the_Periodic_Table/3.05%3A_Isotopes","Information":[{"ReferenceNumber":5,"Name":"Stable Isotope Count","Value":{"StringWithMarkup":[{"String":"0"}]}}],"Section":[{"TOCHeading":"Isotope Mass and Abundance","Description":"Atomic mass and abundance (composition) information for a given isotope/nuclide. The number in the parenthesis refers to an uncertainty when exist. The unit of atomic weight is the unified atomic mass unit (u) or dalton (Da). ","DisplayControls":{"CreateTable":{"FromInformationIn":"ThisSection","NumberOfColumns":3,"ColumnsFromNamedLists":{"Name":["Isotope","Atomic Mass (uncertainty) [u]","Abundance (uncertainty)"],"UseNamesAsColumnHeadings":true}}},"Information":[{"ReferenceNumber":7,"Name":"Isotope","Value":{"StringWithMarkup":[{"String":"272Bh","Markup":[{"Start":0,"Length":3,"Type":"Superscript"}]}]}},{"ReferenceNumber":7,"Name":"Atomic Mass (uncertainty) [u]","Value":{"StringWithMarkup":[{"String":"272.13826(58#)"}]}},{"ReferenceNumber":7,"Name":"Abundance (uncertainty)","Value":{"StringWithMarkup":[{"String":""}]}}]},{"TOCHeading":"Atomic Mass, Half Life, and Decay","Description":"Information on the atomic mass, half life, and decay for this element, from the the Atomic Mass Data Center. The number after the ± refers to an uncertainty when exists.","URL":"https://amdc.impcas.ac.cn/","DisplayControls":{"CreateTable":{"FromInformationIn":"ThisSection","NumberOfColumns":5,"ColumnsFromNamedLists":{"Name":["Nuclide","Atomic Mass and Uncertainty [u]","Half Life and Uncertainty","Discovery Year","Decay Modes, Intensities and Uncertainties [%]"],"UseNamesAsColumnHeadings":true}}},"Information":[{"ReferenceNumber":2,"Name":"Nuclide","Value":{"StringWithMarkup":[{"String":"260Bh","Markup":[{"Start":0,"Length":3,"Type":"Superscript"}]},{"String":"261Bh","Markup":[{"Start":0,"Length":3,"Type":"Superscript"}]},{"String":"262Bh","Markup":[{"Start":0,"Length":3,"Type":"Superscript"}]},{"String":"262Bhm","Markup":[{"Start":0,"Length":3,"Type":"Superscript"},{"Start":5,"Length":1,"Type":"Superscript"}]},{"String":"263Bh","Markup":[{"Start":0,"Length":3,"Type":"Superscript"}]},{"String":"264Bh","Markup":[{"Start":0,"Length":3,"Type":"Superscript"}]},{"String":"264Bhp","Markup":[{"Start":0,"Length":3,"Type":"Superscript"},{"Start":5,"Length":1,"Type":"Superscript"}]},{"String":"265Bh","Markup":[{"Start":0,"Length":3,"Type":"Superscript"}]},{"String":"266Bh","Markup":[{"Start":0,"Length":3,"Type":"Superscript"}]},{"String":"267Bh","Markup":[{"Start":0,"Length":3,"Type":"Superscript"}]},{"String":"268Bh","Markup":[{"Start":0,"Length":3,"Type":"Superscript"}]},{"String":"269Bh","Markup":[{"Start":0,"Length":3,"Type":"Superscript"}]},{"String":"270Bh","Markup":[{"Start":0,"Length":3,"Type":"Superscript"}]},{"String":"271Bh","Markup":[{"Start":0,"Length":3,"Type":"Superscript"}]},{"String":"272Bh","Markup":[{"Start":0,"Length":3,"Type":"Superscript"}]},{"String":"273Bh","Markup":[{"Start":0,"Length":3,"Type":"Superscript"}]},{"String":"274Bh","Markup":[{"Start":0,"Length":3,"Type":"Superscript"}]},{"String":"275Bh","Markup":[{"Start":0,"Length":3,"Type":"Superscript"}]},{"String":"276Bh","Markup":[{"Start":0,"Length":3,"Type":"Superscript"}]},{"String":"277Bh","Markup":[{"Start":0,"Length":3,"Type":"Superscript"}]},{"String":"278Bh","Markup":[{"Start":0,"Length":3,"Type":"Superscript"}]}]}},{"ReferenceNumber":2,"Name":"Atomic Mass and Uncertainty [u]","Value":{"StringWithMarkup":[{"String":"260.121443 ± 0.000211 [Estimated]"},{"String":"261.121395733 ± 0.000193026"},{"String":"262.122654688 ± 0.000099919"},{"String":"262.122654688 ± 0.000099919"},{"String":"263.122916 ± 0.000328 [Estimated]"},{"String":"264.124486 ± 0.00019 [Estimated]"},{"String":"264.124486 ± 0.00019 [Estimated]"},{"String":"265.124955 ± 0.000257 [Estimated]"},{"String":"266.126790 ± 0.000175 [Estimated]"},{"String":"267.127499 ± 0.000282 [Estimated]"},{"String":"268.129584 ± 0.00041 [Estimated]"},{"String":"269.130411 ± 0.000402 [Estimated]"},{"String":"270.133366 ± 0.00032 [Estimated]"},{"String":"271.135115 ± 0.000412 [Estimated]"},{"String":"272.138259 ± 0.000571 [Estimated]"},{"String":"273.140294 ± 0.000703 [Estimated]"},{"String":"274.143599 ± 0.00062 [Estimated]"},{"String":"275.145766 ± 0.000644 [Estimated]"},{"String":"276.149169 ± 0.000644 [Estimated]"},{"String":"277.151477 ± 0.000644 [Estimated]"},{"String":"278.154988 ± 0.000429 [Estimated]"}]}},{"ReferenceNumber":2,"Name":"Half Life and Uncertainty","Value":{"StringWithMarkup":[{"String":"41 ms ± 14"},{"String":"12.8 ms ± 3.2"},{"String":"84 ms ± 11"},{"String":"9.5 ms ± 1.6"},{"String":"200 ms [Estimated]"},{"String":"1.07 s ± 0.21"},{"String":"Not-specified"},{"String":"1.19 s ± 0.52"},{"String":"10.6 s ± 2.2"},{"String":"22 s ± 10"},{"String":"190 s [Estimated]"},{"String":"1 m [Estimated]"},{"String":"3.8 m ± 3.0"},{"String":"2.9 s ± 1.9"},{"String":"11.3 s ± 1.8"},{"String":"1 m [Estimated]"},{"String":"57 s ± 27"},{"String":"1 m [Estimated]"},{"String":"60 s [Estimated]"},{"String":"10 s [Estimated]"},{"String":"2 s [Estimated]"}]}},{"ReferenceNumber":2,"Name":"Discovery Year","Value":{"StringWithMarkup":[{"String":"2008"},{"String":"1989"},{"String":"1981"},{"String":"1981"},{"String":""},{"String":"1995"},{"String":""},{"String":"2004"},{"String":"2000"},{"String":"2000"},{"String":""},{"String":""},{"String":"2007"},{"String":"2013"},{"String":"2004"},{"String":""},{"String":"2010"},{"String":""},{"String":""},{"String":""},{"String":"2016"}]}},{"ReferenceNumber":2,"Name":"Decay Modes, Intensities and Uncertainties [%]","Value":{"StringWithMarkup":[{"String":"α≈100%; β+ ?; SF ?","Markup":[{"Start":9,"Length":1,"Type":"Superscript"}]},{"String":"α≈100%; SF ?"},{"String":"α≈100%; SF<20%"},{"String":"α≈100%; SF ?"},{"String":"α ?"},{"String":"α≈86%; SF≈14%; β+ ?","Markup":[{"Start":16,"Length":1,"Type":"Superscript"}]},{"String":""},{"String":"α=?"},{"String":"α≈100%; β+ ?; SF ?","Markup":[{"Start":9,"Length":1,"Type":"Superscript"}]},{"String":"α=100%"},{"String":"α ?; SF ?"},{"String":"α ?"},{"String":"α=100%"},{"String":"α=100%"},{"String":"α≈100%"},{"String":"α ?; SF ?"},{"String":"α=100%"},{"String":"SF ?"},{"String":"α ?; SF ?"},{"String":"α ?; SF ?"},{"String":"SF≈100%; α ?"}]}}]}]}],"Reference":[{"ReferenceNumber":1,"SourceName":"PubChem","SourceID":"PubChem","Description":"Data deposited in or computed by PubChem","URL":"https://pubchem.ncbi.nlm.nih.gov"},{"ReferenceNumber":2,"SourceName":"Atomic Mass Data Center (AMDC), International Atomic Energy Agency (IAEA)","SourceID":"e107","Name":"Bh","Description":"The half-life and atomic mass data was provided by the Atomic Mass Data Center at the International Atomic Energy Agency.","URL":"https://www-nds.iaea.org/amdc/","LicenseURL":"https://www-nds.iaea.org/disclaimer.html","ANID":6590334},{"ReferenceNumber":3,"SourceName":"Commission on Isotopic Abundances and Atomic Weights (CIAAW), International Union of Pure and Applied Chemistry (IUPAC)","SourceID":"a107","Name":"Bohrium","Description":"Element data are cited from the Atomic weights of the elements (an IUPAC Technical Report). The IUPAC periodic table of elements can be found at https://iupac.org/what-we-do/periodic-table-of-elements/. Additional information can be found within IUPAC publication doi:10.1515/pac-2015-0703 Copyright © 2020 International Union of Pure and Applied Chemistry.","URL":"https://www.ciaaw.org/","LicenseURL":"http://www.ciaaw.org/bylaws.htm","ANID":2292488},{"ReferenceNumber":4,"SourceName":"IUPAC Periodic Table of the Elements and Isotopes (IPTEI)","SourceID":"p107","Description":"The information are cited from Pure Appl. Chem. 2018; 90(12): 1833-2092, https://doi.org/10.1515/pac-2015-0703.","URL":"https://doi.org/10.1515/pac-2015-0703","LicenseNote":"Copyright © 2020 International Union of Pure and Applied Chemistry.\n\nThe International Union of Pure and Applied Chemistry (IUPAC) contribution within Pubchem is provided under a CC-BY-NC-ND 4.0 license, unless otherwise stated. \nhttps://creativecommons.org/licenses/by-nc-nd/4.0/","ANID":13296512},{"ReferenceNumber":6,"SourceName":"Los Alamos National Laboratory, U.S. Department of Energy","SourceID":"lanl107","Name":"Bohrium","Description":"The periodic table at the LANL (Los Alamos National Laboratory) contains basic element information together with the history, source, properties, use, handling and more. The provenance data may be found from the link under the source name.","URL":"https://periodic.lanl.gov/107.shtml","ANID":507287},{"ReferenceNumber":5,"SourceName":"Jefferson Lab, U.S. Department of Energy","SourceID":"jlab107","Name":"Bohrium","Description":"Thomas Jefferson National Accelerator Facility (Jefferson Lab) is one of 17 national laboratories funded by the U.S. Department of Energy. The lab's primary mission is to conduct basic research of the atom's nucleus using the lab's unique particle accelerator, known as the Continuous Electron Beam Accelerator Facility (CEBAF). For more information visit https://www.jlab.org/","URL":"https://education.jlab.org/itselemental/ele107.html","LicenseNote":"Please see citation and linking information: https://education.jlab.org/faq/index.html","LicenseURL":"https://www.jlab.org/privacy-and-security-notice","ANID":507169},{"ReferenceNumber":7,"SourceName":"NIST Physical Measurement Laboratory","SourceID":"e107","Name":"Bohrium","Description":"The periodic table contains NIST's critically-evaluated data on atomic properties of the elements. The provenance data that include data for atomic spectroscopy, X-ray and gamma ray, radiation dosimetry, nuclear physics, and condensed matter physics may be found from the link under the source name. Ref: https://www.nist.gov/pml/atomic-spectra-database","URL":"https://physics.nist.gov/cgi-bin/Elements/elInfo.pl?element=107","LicenseURL":"https://www.nist.gov/pml/database-disclaimer","ANID":2292724},{"ReferenceNumber":8,"SourceName":"PubChem","SourceID":"107","Name":"Bohrium","Description":"This section provides all form of data related to element Bohrium.","ANID":694400}]}}