{"Record":{"RecordType":"AtomicNumber","RecordNumber":108,"RecordTitle":"Hassium","Section":[{"TOCHeading":"Identifiers","Description":"Identifiers for this element, including element name, element symbol, InChI string, and InChIKey.","Section":[{"TOCHeading":"Element Name","Description":"The formal, standard name for a given element, originating from factors such as common usage and the person or place involved in its discovery. Element, also called chemical element, refers to a species of atom; all varieties of atoms with the same number of protons in the nucleus (but possibly a different number of neutrons) are considered to be the same element.","Information":[{"ReferenceNumber":1,"Name":"Element Name","Value":{"StringWithMarkup":[{"String":"Hassium"}]}},{"ReferenceNumber":3,"Name":"Element Name","Value":{"StringWithMarkup":[{"String":"Hassium"}]}}]},{"TOCHeading":"Element Symbol","Description":"Element symbol, also called atomic symbol, typically consists of one or two letters from the Latin alphabet derived from the element name in one of several languages.","Information":[{"ReferenceNumber":1,"Name":"Element Symbol","Value":{"StringWithMarkup":[{"String":"Hs"}]}},{"ReferenceNumber":3,"Name":"Element Symbol","Value":{"StringWithMarkup":[{"String":"Hs"}]}}]},{"TOCHeading":"InChI","Description":"The International Chemical Identifier (InChI) is a computed, non-proprietary identifier for a chemical structure.  The InChI is an International Union of Pure and Applied Chemistry (IUPAC) standard.","URL":"https://iupac.org/who-we-are/divisions/division-details/inchi/","Information":[{"ReferenceNumber":1,"Name":"InChI","Value":{"StringWithMarkup":[{"String":"InChI=1S/Hs"}]}}]},{"TOCHeading":"InChIKey","Description":"An InChIKey is a 27-character hashed code derived from an InChI.  The International Chemical Identifier (InChI) is a computed, non-proprietary identifier for a chemical structure.  The InChI is an International Union of Pure and Applied Chemistry (IUPAC) standard.","URL":"https://iupac.org/who-we-are/divisions/division-details/inchi/","Information":[{"ReferenceNumber":1,"Name":"InChI Key","Value":{"StringWithMarkup":[{"String":"OBDWMWVOVYJOMI-UHFFFAOYSA-N"}]}}]}]},{"TOCHeading":"Properties","Description":"Characteristics of this element, such as atomic number, atomic mass, density, melting point, boiling point and so on.","Section":[{"TOCHeading":"Atomic Weight","Description":"Also called relative atomic mass, is the ratio of the average mass of the atom to the unified atomic mass unit, defined as one twelfth of the mass of a carbon-12 atom in its ground state and used to express masses of atomic particles, u=1.660 5402(10) * 10**(-27) kg. The Standard atomic weights refer to recommended values of relative atomic masses of the elements revised biennially by the IUPAC Commission on Atomic Weights and Isotopic Abundances and applicable to elements in any normal sample with a high level of confidence. The number in the parenthesis refers to an uncertainty when exists. The unit of atomic weight is the dalton or unified atomic mass unit (symbol: Da or u).","Information":[{"ReferenceNumber":5,"Value":{"StringWithMarkup":[{"String":"270"}]}},{"ReferenceNumber":6,"Value":{"StringWithMarkup":[{"String":"277"}]}},{"ReferenceNumber":7,"Value":{"StringWithMarkup":[{"String":"Relative Mass: 270.13429(27#)"}]}}]},{"TOCHeading":"Electron Configuration","Description":"The electron configuration refers a distribution of the electrons of an atom or a molecular entity over a set of one-electron wavefunctions (called orbitals), according to the Pauli principle. From one configuration several states with different multiplicities may result.","URL":"https://chem.libretexts.org/Courses/Sacramento_City_College/SCC%3A_Chem_420_-_Organic_Chemistry_I/Text/01%3A_Introduction_and_Review/1.04%3A_Electron_Configurations","Information":[{"ReferenceNumber":6,"Value":{"StringWithMarkup":[{"String":"[Rn]7s25f146d6","Markup":[{"Start":6,"Length":1,"Type":"Superscript"},{"Start":9,"Length":2,"Type":"Superscript"},{"Start":13,"Length":1,"Type":"Superscript"}]}]}}]},{"TOCHeading":"Atomic Radius","Description":"The atomic radius of a chemical element is a measure of the size of its atom, usually, the distance from the center of the nucleus to the outermost isolated electron.  Because an atom does not have a discrete boundary, there are various non-equivalent definitions of atomic radius, such as Van der Waals radius and covalent radius.","Information":[{"ReferenceNumber":6,"Name":"Empirical Atomic Radius","Value":{"StringWithMarkup":[{"String":"empirical: 126 pm (estimated)"}]}}]},{"TOCHeading":"Oxidation States","Description":"The oxidation state(s) that this element commonly has in a compound.  The oxidation state of an atom is defined as the hypothetical charge that would be held by that atom if all of its bonds to other atoms were completely ionic in nature. For example, the oxidation state of carbon in CO2 would be +4 since the hypothetical charge held by the carbon atom if both of the carbon-oxygen double bonds were completely ionic would be equal to +4 (each oxygen atom would hold a charge of -2 since oxygen is more electronegative than carbon).","URL":"https://chem.libretexts.org/Bookshelves/General_Chemistry/Map%3A_Chemistry_-_The_Central_Science_(Brown_et_al.)/20%3A_Electrochemistry/20.01%3A_Oxidation_States_and_Redox_Reactions","Information":[{"ReferenceNumber":6,"Value":{"StringWithMarkup":[{"String":"8, (6), (5), (4), (3), (2)​(parenthesized oxidation states are predictions)"}]}}]},{"TOCHeading":"Ground Level","Description":"Also called ground-state level. The ground state electron configuration is the arrangement of electrons around the nucleus of an atom with lower energy levels.","Information":[{"ReferenceNumber":7,"Value":{"StringWithMarkup":[{"String":"4"}]}}]},{"TOCHeading":"Ionization Energy","Description":"Ionization energy, also called ionization potential, is the amount of energy required to remove an electron from an isolated atom or molecule.","URL":"https://www.britannica.com/science/ionization-energy","Information":[{"ReferenceNumber":7,"Reference":["Ionization Potentials and Radii of Neutral and Ionized Species of Elements 107 (Bohrium) and 108 (Hassium) from Extended Multiconfiguration Dirac-Fock Calculations, E. Johnson, B. Fricke, T. Jacob, C. Z. Dong, S. Fritzsche, and V. Pershina, J. Chem. Phys. 116, 1862–1868 (2002) DOI:10.1063/1.1430256"],"Value":{"StringWithMarkup":[{"String":"7.6 ± 0.5 eV  (The level was determined by interpolation or extrapolation of known experimental values or by semiempirical calculation; its absolutre accuracy is reflected in the number of significant figures assigned to it.)"}]}}]},{"TOCHeading":"Atomic Spectra","Description":"The spectrum of the electromagnetic radiation emitted or absorbed by an electron during transitions between different energy levels within an atom.","Information":[{"ReferenceNumber":7,"URL":"https://physics.nist.gov/cgi-bin/ASD/levels_hold.pl?el=Hs","Value":{"StringWithMarkup":[{"String":"Levels Holdings"}]}}]},{"TOCHeading":"Physical Description","Description":"The appearance or features of this element, including color, odor, state, taste and more in general.","Information":[{"ReferenceNumber":5,"Value":{"StringWithMarkup":[{"String":"Solid"}]}}]},{"TOCHeading":"Element Classification","Description":"Classification according to the element's chemical and physical properties, and location within the periodic table.","Information":[{"ReferenceNumber":5,"Value":{"StringWithMarkup":[{"String":"Metal"}]}}]},{"TOCHeading":"Element Period Number","Description":"The element period number refers to a horizontal row of the periodic table. The periodic table has 7 periods.","Information":[{"ReferenceNumber":5,"Value":{"StringWithMarkup":[{"String":"7"}]}}]},{"TOCHeading":"Element Group Number","Description":"Element group refers to a set of chemical elements in the same vertical column of the periodic table","Information":[{"ReferenceNumber":5,"Value":{"StringWithMarkup":[{"String":"8"}]}}]},{"TOCHeading":"Estimated Crustal Abundance","Description":"The estimated element abundance in the earth's crust.","Information":[{"ReferenceNumber":5,"Value":{"StringWithMarkup":[{"String":"Not Applicable"}]}}]},{"TOCHeading":"Estimated Oceanic Abundance","Description":"The estimated element abundance in the earth's oceans.","Information":[{"ReferenceNumber":5,"Value":{"StringWithMarkup":[{"String":"Not Applicable"}]}}]}]},{"TOCHeading":"History","Description":"The history of the discovery and use of this element.","Information":[{"ReferenceNumber":5,"Value":{"StringWithMarkup":[{"String":"Hassium was first produced by Peter Armbruster, Gottfried Münzenber and their team working at the Gesellschaft für Schwerionenforschung in Darmstadt, Germany in 1984. They bombarded atoms of lead-208 with ions of iron-58 with a device known as a linear accelerator. This produced atoms of hassium-265, an isotope with a half-life of about 2 milliseconds (0.002 seconds), and a free neutron. Hassium's most stable isotope, hassium-270, has a half-life of about 22 seconds. It decays into seaborgium-266 through alpha decay."}]}},{"ReferenceNumber":6,"Value":{"StringWithMarkup":[{"String":"Its name is Latin \"Hassias\" meaning \"Hess,\" from the German state. Discovered by Peter Armbruster, Gottfried Munzenber and co-workers at GSI in Darmstadt, Germany in 1984."}]}}]},{"TOCHeading":"Description","Description":"A short description of this element, provided by authoritative sources.","Information":[{"ReferenceNumber":4,"Reference":["[651]  P. Preuss. Hassium Becomes Heaviest Element to have its Chemistry Studied, Berkeley Lab (2014), Feb. 25; http://www.lbl.gov/Science-Articles/Archive/108-chemistry.html.","[652]  Science Education at Jefferson Lab. It’s Elemental – The Element Hassium, Science Education at Jefferson Lab (2014), Feb. 25; http://education.jlab.org/itselemental/ele108.html.","[653]  W. Loveland. “Nuclear Chemistry”, in Encyclopedia of Physical Science and Technology, R. A. Meyers (Ed.), Academic Press, New York (2001).","[654]  Gallery-GSI in General, p. 201. GSI Helmholtzzentrum für Schwerionenforschung GmbH August 28; https://www.gsi.de/en/press/mediathek/gallery.htm#c4445."],"Value":{"StringWithMarkup":[{"String":"Hassium does not occur naturally in the Earth’s crust. Hassium was first synthesized by German scientists at the GSI Center for Heavy Ion Research in Darmstadt, Germany in 1984 using the nuclear reaction 208Pb (58Fe, n) 265Hs (Fig. IUPAC.108.1). The element is named for Hassia (the Latin name for the German state of Hesse), whose former capital was Darmstadt [651], [652], [653]. Hassium is used in chemical and heavy element research.","Markup":[{"Start":204,"Length":3,"Type":"Superscript"},{"Start":211,"Length":2,"Type":"Superscript"},{"Start":220,"Length":3,"Type":"Superscript"}]},{"String":"          ","Markup":[{"Start":0,"Length":1,"URL":"https://pubchem.ncbi.nlm.nih.gov/images/iupac/j_pac-2015-0703_fig_144.jpg","Type":"Image","Size":"1417x589","Caption":"Fig. IUPAC.108.1: GSI Helmholtz Centre for Heavy Ion Research in Darmstadt, Germany. (Used with permission from: GSI Helmholtzzentrum für Schwerionenforschung) [654]. "}]}]}}]},{"TOCHeading":"Uses","Description":"Uses of this element in industry and other fields.","Information":[{"ReferenceNumber":5,"Value":{"StringWithMarkup":[{"String":"Since only small amounts of hassium have ever been produced, it currently has no uses outside of basic scientific research."}]}}]},{"TOCHeading":"Compounds","Description":"Compound records related to this element.","Information":[{"ReferenceNumber":8,"Name":"Compounds","URL":"https://pubchem.ncbi.nlm.nih.gov/compound/Hassium","Value":{"StringWithMarkup":[{"String":"See more information at the Hassium compound page."}]}}],"Section":[{"TOCHeading":"Element Forms","Description":"Other forms of this element, including ions, isotopes, etc.","DisplayControls":{"CreateTable":{"FromInformationIn":"ThisSection","NumberOfColumns":5,"ColumnsFromNamedLists":{"Name":["CID","Name","Formula","SMILES","Molecular Weight"],"UseNamesAsColumnHeadings":true}}},"Information":[{"ReferenceNumber":8,"Name":"CID","Value":{"StringWithMarkup":[{"String":"56951714","Markup":[{"Start":0,"Length":8,"URL":"https://pubchem.ncbi.nlm.nih.gov/compound/56951714"}]}]}},{"ReferenceNumber":8,"Name":"Name","Value":{"StringWithMarkup":[{"String":"hassium"}]}},{"ReferenceNumber":8,"Name":"Formula","Value":{"StringWithMarkup":[{"String":"Hs"}]}},{"ReferenceNumber":8,"Name":"SMILES","Value":{"StringWithMarkup":[{"String":"[Hs]"}]}},{"ReferenceNumber":8,"Name":"Molecular Weight","Value":{"StringWithMarkup":[{"String":"269.134"}]}}]}]},{"TOCHeading":"Isotopes","Description":"Isotopes are nuclides having the same atomic number but different mass numbers.  This section provides information on the isotopes of this element and their uses in various fields.","URL":"https://chem.libretexts.org/Courses/Furman_University/CHM101%3A_Chemistry_and_Global_Awareness_(Gordon)/03%3A_Atoms_and_the_Periodic_Table/3.05%3A_Isotopes","Information":[{"ReferenceNumber":5,"Name":"Stable Isotope Count","Value":{"StringWithMarkup":[{"String":"0"}]}}],"Section":[{"TOCHeading":"Isotope Mass and Abundance","Description":"Atomic mass and abundance (composition) information for a given isotope/nuclide. The number in the parenthesis refers to an uncertainty when exist. The unit of atomic weight is the unified atomic mass unit (u) or dalton (Da). ","DisplayControls":{"CreateTable":{"FromInformationIn":"ThisSection","NumberOfColumns":3,"ColumnsFromNamedLists":{"Name":["Isotope","Atomic Mass (uncertainty) [u]","Abundance (uncertainty)"],"UseNamesAsColumnHeadings":true}}},"Information":[{"ReferenceNumber":7,"Name":"Isotope","Value":{"StringWithMarkup":[{"String":"270Hs","Markup":[{"Start":0,"Length":3,"Type":"Superscript"}]}]}},{"ReferenceNumber":7,"Name":"Atomic Mass (uncertainty) [u]","Value":{"StringWithMarkup":[{"String":"270.13429(27#)"}]}},{"ReferenceNumber":7,"Name":"Abundance (uncertainty)","Value":{"StringWithMarkup":[{"String":""}]}}]},{"TOCHeading":"Atomic Mass, Half Life, and Decay","Description":"Information on the atomic mass, half life, and decay for this element, from the the Atomic Mass Data Center. The number after the ± refers to an uncertainty when exists.","URL":"https://amdc.impcas.ac.cn/","DisplayControls":{"CreateTable":{"FromInformationIn":"ThisSection","NumberOfColumns":5,"ColumnsFromNamedLists":{"Name":["Nuclide","Atomic Mass and Uncertainty [u]","Half Life and Uncertainty","Discovery Year","Decay Modes, Intensities and Uncertainties [%]"],"UseNamesAsColumnHeadings":true}}},"Information":[{"ReferenceNumber":2,"Name":"Nuclide","Value":{"StringWithMarkup":[{"String":"263Hs","Markup":[{"Start":0,"Length":3,"Type":"Superscript"}]},{"String":"263Hsm","Markup":[{"Start":0,"Length":3,"Type":"Superscript"},{"Start":5,"Length":1,"Type":"Superscript"}]},{"String":"264Hs","Markup":[{"Start":0,"Length":3,"Type":"Superscript"}]},{"String":"265Hs","Markup":[{"Start":0,"Length":3,"Type":"Superscript"}]},{"String":"265Hsm","Markup":[{"Start":0,"Length":3,"Type":"Superscript"},{"Start":5,"Length":1,"Type":"Superscript"}]},{"String":"266Hs","Markup":[{"Start":0,"Length":3,"Type":"Superscript"}]},{"String":"266Hsm","Markup":[{"Start":0,"Length":3,"Type":"Superscript"},{"Start":5,"Length":1,"Type":"Superscript"}]},{"String":"267Hs","Markup":[{"Start":0,"Length":3,"Type":"Superscript"}]},{"String":"267Hsm","Markup":[{"Start":0,"Length":3,"Type":"Superscript"},{"Start":5,"Length":1,"Type":"Superscript"}]},{"String":"268Hs","Markup":[{"Start":0,"Length":3,"Type":"Superscript"}]},{"String":"269Hs","Markup":[{"Start":0,"Length":3,"Type":"Superscript"}]},{"String":"270Hs","Markup":[{"Start":0,"Length":3,"Type":"Superscript"}]},{"String":"271Hs","Markup":[{"Start":0,"Length":3,"Type":"Superscript"}]},{"String":"272Hs","Markup":[{"Start":0,"Length":3,"Type":"Superscript"}]},{"String":"273Hs","Markup":[{"Start":0,"Length":3,"Type":"Superscript"}]},{"String":"273Hsp","Markup":[{"Start":0,"Length":3,"Type":"Superscript"},{"Start":5,"Length":1,"Type":"Superscript"}]},{"String":"274Hs","Markup":[{"Start":0,"Length":3,"Type":"Superscript"}]},{"String":"275Hs","Markup":[{"Start":0,"Length":3,"Type":"Superscript"}]},{"String":"276Hs","Markup":[{"Start":0,"Length":3,"Type":"Superscript"}]},{"String":"277Hs","Markup":[{"Start":0,"Length":3,"Type":"Superscript"}]},{"String":"277Hsm","Markup":[{"Start":0,"Length":3,"Type":"Superscript"},{"Start":5,"Length":1,"Type":"Superscript"}]},{"String":"278Hs","Markup":[{"Start":0,"Length":3,"Type":"Superscript"}]},{"String":"279Hs","Markup":[{"Start":0,"Length":3,"Type":"Superscript"}]},{"String":"280Hs","Markup":[{"Start":0,"Length":3,"Type":"Superscript"}]}]}},{"ReferenceNumber":2,"Name":"Atomic Mass and Uncertainty [u]","Value":{"StringWithMarkup":[{"String":"263.128479 ± 0.000212 [Estimated]"},{"String":"263.128479 ± 0.000212 [Estimated]"},{"String":"264.128356330 ± 0.000031005"},{"String":"265.129791744 ± 0.000025719"},{"String":"265.129791744 ± 0.000025719"},{"String":"266.130048783 ± 0.000029099"},{"String":"266.130048783 ± 0.000029099"},{"String":"267.131678 ± 0.000102 [Estimated]"},{"String":"267.131678 ± 0.000102 [Estimated]"},{"String":"268.132011 ± 0.000322 [Estimated]"},{"String":"269.133649 ± 0.000141 [Estimated]"},{"String":"270.134313 ± 0.000266 [Estimated]"},{"String":"271.137082 ± 0.000296 [Estimated]"},{"String":"272.138492 ± 0.000547 [Estimated]"},{"String":"273.141458 ± 0.000401 [Estimated]"},{"String":"273.141458 ± 0.000401 [Estimated]"},{"String":"274.143217 ± 0.000504 [Estimated]"},{"String":"275.146530 ± 0.000637 [Estimated]"},{"String":"276.148348 ± 0.000773 [Estimated]"},{"String":"277.151772 ± 0.00048 [Estimated]"},{"String":"277.151772 ± 0.00048 [Estimated]"},{"String":"278.153753 ± 0.000322 [Estimated]"},{"String":"279.157274 ± 0.000644 [Estimated]"},{"String":"280.159335 ± 0.000644 [Estimated]"}]}},{"ReferenceNumber":2,"Name":"Half Life and Uncertainty","Value":{"StringWithMarkup":[{"String":"0.9 ms ± 0.4"},{"String":"1 ms [Estimated]"},{"String":"0.7 s ± 0.3"},{"String":"1.96 ms ± 0.16"},{"String":"360 us ± 150"},{"String":"3.0 ms ± 0.6"},{"String":"280 ms ± 220"},{"String":"55 ms ± 11"},{"String":"990 us ± 90"},{"String":"1.4 s ± 1.1"},{"String":"15 s ± 7"},{"String":"9 s ± 4"},{"String":"10 s [Estimated]"},{"String":"10 s [Estimated]"},{"String":"1060 ms ± 500"},{"String":"Not-specified"},{"String":"500 ms [Estimated]"},{"String":"280 ms ± 130"},{"String":"100 ms [Estimated]"},{"String":"12 ms ± 9"},{"String":"130 s ± 100"},{"String":"2 s [Estimated]"},{"String":"1 s [Estimated]"},{"String":"100 ms [Estimated]"}]}},{"ReferenceNumber":2,"Name":"Discovery Year","Value":{"StringWithMarkup":[{"String":"2009"},{"String":""},{"String":"1986"},{"String":"1984"},{"String":"1995"},{"String":"2001"},{"String":"2011"},{"String":"1995"},{"String":"2004"},{"String":"2010"},{"String":"1996"},{"String":"2003"},{"String":"2008"},{"String":""},{"String":"2010"},{"String":""},{"String":""},{"String":"2004"},{"String":""},{"String":"2010"},{"String":"2012"},{"String":"2016"},{"String":""},{"String":""}]}},{"ReferenceNumber":2,"Name":"Decay Modes, Intensities and Uncertainties [%]","Value":{"StringWithMarkup":[{"String":"α≈100%; SF ?"},{"String":"α≈100%; SF ?"},{"String":"α=70±3%; SF=30±3%"},{"String":"α≈100%; SF ?"},{"String":"α≈100%; IT ?"},{"String":"α=76±0.9%; SF=24±0.9%"},{"String":"α≈100%"},{"String":"α>80%; SF ?"},{"String":"α=?; IT ?"},{"String":"α≈100%"},{"String":"α=100%"},{"String":"α≈100%; SF ?"},{"String":"α ?; SF ?"},{"String":"α ?; SF ?"},{"String":"α≈100%; SF ?"},{"String":"α ?; SF ?"},{"String":"α ?; SF ?"},{"String":"α=100%"},{"String":"α ?; SF ?"},{"String":"SF≈100%; α ?"},{"String":"SF=100%"},{"String":"SF≈100%; α ?"},{"String":"α ?; SF ?"},{"String":"α ?; SF ?"}]}}]}]}],"Reference":[{"ReferenceNumber":1,"SourceName":"PubChem","SourceID":"PubChem","Description":"Data deposited in or computed by PubChem","URL":"https://pubchem.ncbi.nlm.nih.gov"},{"ReferenceNumber":2,"SourceName":"Atomic Mass Data Center (AMDC), International Atomic Energy Agency (IAEA)","SourceID":"e108","Name":"Hs","Description":"The half-life and atomic mass data was provided by the Atomic Mass Data Center at the International Atomic Energy Agency.","URL":"https://www-nds.iaea.org/amdc/","LicenseURL":"https://www-nds.iaea.org/disclaimer.html","ANID":6590335},{"ReferenceNumber":3,"SourceName":"Commission on Isotopic Abundances and Atomic Weights (CIAAW), International Union of Pure and Applied Chemistry (IUPAC)","SourceID":"a108","Name":"Hassium","Description":"Element data are cited from the Atomic weights of the elements (an IUPAC Technical Report). The IUPAC periodic table of elements can be found at https://iupac.org/what-we-do/periodic-table-of-elements/. Additional information can be found within IUPAC publication doi:10.1515/pac-2015-0703 Copyright © 2020 International Union of Pure and Applied Chemistry.","URL":"https://www.ciaaw.org/","LicenseURL":"http://www.ciaaw.org/bylaws.htm","ANID":2292489},{"ReferenceNumber":4,"SourceName":"IUPAC Periodic Table of the Elements and Isotopes (IPTEI)","SourceID":"p108","Description":"The information are cited from Pure Appl. Chem. 2018; 90(12): 1833-2092, https://doi.org/10.1515/pac-2015-0703.","URL":"https://doi.org/10.1515/pac-2015-0703","LicenseNote":"Copyright © 2020 International Union of Pure and Applied Chemistry.\n\nThe International Union of Pure and Applied Chemistry (IUPAC) contribution within Pubchem is provided under a CC-BY-NC-ND 4.0 license, unless otherwise stated. \nhttps://creativecommons.org/licenses/by-nc-nd/4.0/","ANID":13296513},{"ReferenceNumber":5,"SourceName":"Jefferson Lab, U.S. Department of Energy","SourceID":"jlab108","Name":"Hassium","Description":"Thomas Jefferson National Accelerator Facility (Jefferson Lab) is one of 17 national laboratories funded by the U.S. Department of Energy. The lab's primary mission is to conduct basic research of the atom's nucleus using the lab's unique particle accelerator, known as the Continuous Electron Beam Accelerator Facility (CEBAF). For more information visit https://www.jlab.org/","URL":"https://education.jlab.org/itselemental/ele108.html","LicenseNote":"Please see citation and linking information: https://education.jlab.org/faq/index.html","LicenseURL":"https://www.jlab.org/privacy-and-security-notice","ANID":507170},{"ReferenceNumber":6,"SourceName":"Los Alamos National Laboratory, U.S. Department of Energy","SourceID":"lanl108","Name":"Hassium","Description":"The periodic table at the LANL (Los Alamos National Laboratory) contains basic element information together with the history, source, properties, use, handling and more. The provenance data may be found from the link under the source name.","URL":"https://periodic.lanl.gov/108.shtml","ANID":507288},{"ReferenceNumber":7,"SourceName":"NIST Physical Measurement Laboratory","SourceID":"e108","Name":"Hassium","Description":"The periodic table contains NIST's critically-evaluated data on atomic properties of the elements. The provenance data that include data for atomic spectroscopy, X-ray and gamma ray, radiation dosimetry, nuclear physics, and condensed matter physics may be found from the link under the source name. Ref: https://www.nist.gov/pml/atomic-spectra-database","URL":"https://physics.nist.gov/cgi-bin/Elements/elInfo.pl?element=108","LicenseURL":"https://www.nist.gov/pml/database-disclaimer","ANID":2292725},{"ReferenceNumber":8,"SourceName":"PubChem","SourceID":"108","Name":"Hassium","Description":"This section provides all form of data related to element Hassium.","ANID":694401}]}}