{"atomic_number":"101","element":"Mendelevium","symbol":"Md","atomic_weight":"258","period":"7","group":"30","phase":"artificial","most_stable_crystal":"","type":"Actinide","ionic_radius":"","atomic_radius":"","electronegativity":"1.3","first_ionization_potential":"6.58","density":"","melting_point_k":"","boiling_point_k":"","isotopes":"33","discoverer":"Ghiorso et al.","year_of_discovery":"1955","specific_heat_capacity":"","electron_configuration":"","display_row":"9","display_column":"15\r"}