{"atomic_number":"102","element":"Nobelium","symbol":"No","atomic_weight":"259","period":"7","group":"31","phase":"artificial","most_stable_crystal":"","type":"Actinide","ionic_radius":"","atomic_radius":"","electronegativity":"1.3","first_ionization_potential":"6.65","density":"","melting_point_k":"","boiling_point_k":"","isotopes":"73","discoverer":"Ghiorso et al.","year_of_discovery":"1958","specific_heat_capacity":"","electron_configuration":"","display_row":"9","display_column":"16\r"}