{"atomic_number":"103","element":"Lawrencium","symbol":"Lr","atomic_weight":"262","period":"7","group":"32","phase":"artificial","most_stable_crystal":"","type":"Actinide","ionic_radius":"","atomic_radius":"","electronegativity":"","first_ionization_potential":"","density":"","melting_point_k":"","boiling_point_k":"","isotopes":"203","discoverer":"Ghiorso et al.","year_of_discovery":"1961","specific_heat_capacity":"","electron_configuration":"","display_row":"9","display_column":"17\r"}