{"atomic_number":"104","element":"Rutherfordium","symbol":"Rf","atomic_weight":"261","period":"7","group":"4","phase":"artificial","most_stable_crystal":"","type":"Transactinide","ionic_radius":"","atomic_radius":"","electronegativity":"","first_ionization_potential":"","density":"18.1","melting_point_k":"","boiling_point_k":"","isotopes":"","discoverer":"Ghiorso et al.","year_of_discovery":"1969","specific_heat_capacity":"","electron_configuration":"","display_row":"7","display_column":"4\r"}