{"atomic_number":"105","element":"Dubnium","symbol":"Db","atomic_weight":"262","period":"7","group":"5","phase":"artificial","most_stable_crystal":"","type":"Transactinide","ionic_radius":"","atomic_radius":"","electronegativity":"","first_ionization_potential":"","density":"39","melting_point_k":"","boiling_point_k":"","isotopes":"","discoverer":"Ghiorso et al.","year_of_discovery":"1970","specific_heat_capacity":"","electron_configuration":"","display_row":"7","display_column":"5\r"}