{"atomic_number":"106","element":"Seaborgium","symbol":"Sg","atomic_weight":"266","period":"7","group":"6","phase":"artificial","most_stable_crystal":"","type":"Transactinide","ionic_radius":"","atomic_radius":"","electronegativity":"","first_ionization_potential":"","density":"35","melting_point_k":"","boiling_point_k":"","isotopes":"","discoverer":"Ghiorso et al.","year_of_discovery":"1974","specific_heat_capacity":"","electron_configuration":"","display_row":"7","display_column":"6\r"}