{"atomic_number":"107","element":"Bohrium","symbol":"Bh","atomic_weight":"264","period":"7","group":"7","phase":"artificial","most_stable_crystal":"","type":"Transactinide","ionic_radius":"","atomic_radius":"","electronegativity":"","first_ionization_potential":"","density":"37","melting_point_k":"","boiling_point_k":"","isotopes":"","discoverer":"Armbruster and Mï¿½nzenberg","year_of_discovery":"1981","specific_heat_capacity":"","electron_configuration":"","display_row":"7","display_column":"7\r"}