{"atomic_number":"108","element":"Hassium","symbol":"Hs","atomic_weight":"267","period":"7","group":"8","phase":"artificial","most_stable_crystal":"","type":"Transactinide","ionic_radius":"","atomic_radius":"","electronegativity":"","first_ionization_potential":"","density":"41","melting_point_k":"","boiling_point_k":"","isotopes":"","discoverer":"Armbruster and Mï¿½nzenberg","year_of_discovery":"1983","specific_heat_capacity":"","electron_configuration":"","display_row":"7","display_column":"8\r"}