{"atomic_number":"109","element":"Meitnerium","symbol":"Mt","atomic_weight":"268","period":"7","group":"9","phase":"artificial","most_stable_crystal":"","type":"Transactinide","ionic_radius":"","atomic_radius":"","electronegativity":"","first_ionization_potential":"","density":"35","melting_point_k":"","boiling_point_k":"","isotopes":"","discoverer":"\"GSI","year_of_discovery":" Darmstadt","specific_heat_capacity":" West Germany\"","electron_configuration":"1982","display_row":"","display_column":""}