{
    "atomic_number": "10",
    "element": "Neon",
    "symbol": "Ne",
    "atomic_weight": "20.1797",
    "period": "2",
    "group": "18",
    "phase": "gas",
    "most_stable_crystal": "",
    "type": "Noble Gas",
    "ionic_radius": "",
    "atomic_radius": "0.51",
    "electronegativity": "",
    "first_ionization_potential": "21.5645",
    "density": "0.0008999",
    "melting_point_k": "24.703",
    "boiling_point_k": "27.07",
    "isotopes": "8",
    "discoverer": "Ramsay and Travers",
    "year_of_discovery": "1898",
    "specific_heat_capacity": "1.03",
    "electron_configuration": "[He] 2s2 2p6",
    "display_row": "2",
    "display_column": "18\r"
}