{"atomic_number":"11","element":"Sodium","symbol":"Na","atomic_weight":"22.98976928","period":"3","group":"1","phase":"solid","most_stable_crystal":"bcc","type":"Alkali Metal","ionic_radius":"1","atomic_radius":"2.2","electronegativity":"0.93","first_ionization_potential":"5.1391","density":"0.971","melting_point_k":"371.15","boiling_point_k":"1156","isotopes":"7","discoverer":"Davy","year_of_discovery":"1807","specific_heat_capacity":"1.228","electron_configuration":"[Ne] 3s1","display_row":"3","display_column":"1\r"}