{"atomic_number":"12","element":"Magnesium","symbol":"Mg","atomic_weight":"24.305","period":"3","group":"2","phase":"solid","most_stable_crystal":"hex","type":"Alkaline Earth Metal","ionic_radius":"0.72","atomic_radius":"1.7","electronegativity":"1.31","first_ionization_potential":"7.6462","density":"1.738","melting_point_k":"923.15","boiling_point_k":"1363","isotopes":"8","discoverer":"Black","year_of_discovery":"1755","specific_heat_capacity":"1.023","electron_configuration":"[Ne] 3s2","display_row":"3","display_column":"2\r"}