{"atomic_number":"14","element":"Silicon","symbol":"Si","atomic_weight":"28.0855","period":"3","group":"14","phase":"solid","most_stable_crystal":"fcc","type":"Metalloid","ionic_radius":"0.4","atomic_radius":"1.5","electronegativity":"1.9","first_ionization_potential":"8.1517","density":"2.3296","melting_point_k":"1683.15","boiling_point_k":"3538","isotopes":"8","discoverer":"Berzelius","year_of_discovery":"1824","specific_heat_capacity":"0.705","electron_configuration":"[Ne] 3s2 3p2","display_row":"3","display_column":"14\r"}