{"atomic_number":"15","element":"Phosphorus","symbol":"P","atomic_weight":"30.973762","period":"3","group":"15","phase":"solid","most_stable_crystal":"cub","type":"Nonmetal","ionic_radius":"0.38","atomic_radius":"1.2","electronegativity":"2.19","first_ionization_potential":"10.4867","density":"1.82","melting_point_k":"317.25","boiling_point_k":"553","isotopes":"7","discoverer":"BranBrand","year_of_discovery":"1669","specific_heat_capacity":"0.769","electron_configuration":"[Ne] 3s2 3p3","display_row":"3","display_column":"15\r"}