{"atomic_number":"16","element":"Sulfur","symbol":"S","atomic_weight":"32.065","period":"3","group":"16","phase":"solid","most_stable_crystal":"orth","type":"Nonmetal","ionic_radius":"0.37","atomic_radius":"1.1","electronegativity":"2.58","first_ionization_potential":"10.36","density":"2.067","melting_point_k":"388.51","boiling_point_k":"717.8","isotopes":"10","discoverer":"Prehistoric","year_of_discovery":"","specific_heat_capacity":"0.71","electron_configuration":"[Ne] 3s2 3p4","display_row":"3","display_column":"16\r"}