{"atomic_number":"17","element":"Chlorine","symbol":"Cl","atomic_weight":"35.453","period":"3","group":"17","phase":"gas","most_stable_crystal":"","type":"Halogen","ionic_radius":"1.8","atomic_radius":"0.97","electronegativity":"3.16","first_ionization_potential":"12.9676","density":"0.003214","melting_point_k":"172.31","boiling_point_k":"239.11","isotopes":"11","discoverer":"Scheele","year_of_discovery":"1774","specific_heat_capacity":"0.479","electron_configuration":"[Ne] 3s2 3p5","display_row":"3","display_column":"17\r"}