{"atomic_number":"18","element":"Argon","symbol":"Ar","atomic_weight":"39.948","period":"3","group":"18","phase":"gas","most_stable_crystal":"","type":"Noble Gas","ionic_radius":"","atomic_radius":"0.88","electronegativity":"","first_ionization_potential":"15.7596","density":"0.0017837","melting_point_k":"83.96","boiling_point_k":"87.3","isotopes":"8","discoverer":"Rayleigh and Ramsay","year_of_discovery":"1894","specific_heat_capacity":"0.52","electron_configuration":"[Ne] 3s2 3p6","display_row":"3","display_column":"18\r"}