{"atomic_number":"19","element":"Potassium","symbol":"K","atomic_weight":"39.0983","period":"4","group":"1","phase":"solid","most_stable_crystal":"bcc","type":"Alkali Metal","ionic_radius":"1.4","atomic_radius":"2.8","electronegativity":"0.82","first_ionization_potential":"4.3407","density":"0.862","melting_point_k":"336.5","boiling_point_k":"1032","isotopes":"10","discoverer":"Davy","year_of_discovery":"1807","specific_heat_capacity":"0.757","electron_configuration":"[Ar] 4s1","display_row":"4","display_column":"1\r"}