{
    "atomic_number": "1",
    "element": "Hydrogen",
    "symbol": "H",
    "atomic_weight": "1.00794",
    "period": "1",
    "group": "1",
    "phase": "gas",
    "most_stable_crystal": "",
    "type": "Nonmetal",
    "ionic_radius": "0.012",
    "atomic_radius": "0.79",
    "electronegativity": "2.2",
    "first_ionization_potential": "13.5984",
    "density": "0.00008988",
    "melting_point_k": "14.175",
    "boiling_point_k": "20.28",
    "isotopes": "3",
    "discoverer": "Cavendish",
    "year_of_discovery": "1766",
    "specific_heat_capacity": "14.304",
    "electron_configuration": "1s1",
    "display_row": "1",
    "display_column": "1\r"
}