{"atomic_number":"20","element":"Calcium","symbol":"Ca","atomic_weight":"40.078","period":"4","group":"2","phase":"solid","most_stable_crystal":"fcc","type":"Alkaline Earth Metal","ionic_radius":"0.99","atomic_radius":"2.2","electronegativity":"1","first_ionization_potential":"6.1132","density":"1.54","melting_point_k":"1112.15","boiling_point_k":"1757","isotopes":"14","discoverer":"Davy","year_of_discovery":"1808","specific_heat_capacity":"0.647","electron_configuration":"[Ar] 4s2","display_row":"4","display_column":"2\r"}