{"atomic_number":"21","element":"Scandium","symbol":"Sc","atomic_weight":"44.955912","period":"4","group":"3","phase":"solid","most_stable_crystal":"hex","type":"Transition Metal","ionic_radius":"0.75","atomic_radius":"2.1","electronegativity":"1.36","first_ionization_potential":"6.5615","density":"2.989","melting_point_k":"1812.15","boiling_point_k":"3109","isotopes":"15","discoverer":"Nilson","year_of_discovery":"1878","specific_heat_capacity":"0.568","electron_configuration":"[Ar] 3d1 4s2","display_row":"4","display_column":"3\r"}