{"atomic_number":"22","element":"Titanium","symbol":"Ti","atomic_weight":"47.867","period":"4","group":"4","phase":"solid","most_stable_crystal":"hex","type":"Transition Metal","ionic_radius":"0.61","atomic_radius":"2","electronegativity":"1.54","first_ionization_potential":"6.8281","density":"4.54","melting_point_k":"1933.15","boiling_point_k":"3560","isotopes":"9","discoverer":"Gregor","year_of_discovery":"1791","specific_heat_capacity":"0.523","electron_configuration":"[Ar] 3d2 4s2","display_row":"4","display_column":"4\r"}