{"atomic_number":"23","element":"Vanadium","symbol":"V","atomic_weight":"50.9415","period":"4","group":"5","phase":"solid","most_stable_crystal":"bcc","type":"Transition Metal","ionic_radius":"0.59","atomic_radius":"1.9","electronegativity":"1.63","first_ionization_potential":"6.7462","density":"6.11","melting_point_k":"2175.15","boiling_point_k":"3680","isotopes":"9","discoverer":"   del Rio","year_of_discovery":"1801","specific_heat_capacity":"0.489","electron_configuration":"[Ar] 3d3 4s2","display_row":"4","display_column":"5\r"}