{"atomic_number":"24","element":"Chromium","symbol":"Cr","atomic_weight":"51.9961","period":"4","group":"6","phase":"solid","most_stable_crystal":"bcc","type":"Transition Metal","ionic_radius":"0.52","atomic_radius":"1.9","electronegativity":"1.66","first_ionization_potential":"6.7665","density":"7.15","melting_point_k":"2130.15","boiling_point_k":"2944","isotopes":"9","discoverer":"Vauquelin","year_of_discovery":"1797","specific_heat_capacity":"0.449","electron_configuration":"[Ar] 3d5 4s1","display_row":"4","display_column":"6\r"}