{"atomic_number":"25","element":"Manganese","symbol":"Mn","atomic_weight":"54.938045","period":"4","group":"7","phase":"solid","most_stable_crystal":"bcc","type":"Transition Metal","ionic_radius":"0.46","atomic_radius":"1.8","electronegativity":"1.55","first_ionization_potential":"7.434","density":"7.44","melting_point_k":"1519.15","boiling_point_k":"2334","isotopes":"11","discoverer":"\"Gahn","year_of_discovery":" Scheele\"","specific_heat_capacity":"1774","electron_configuration":"0.479","display_row":"[Ar] 3d5 4s2","display_column":"4"}