{"atomic_number":"26","element":"Iron","symbol":"Fe","atomic_weight":"55.845","period":"4","group":"8","phase":"solid","most_stable_crystal":"bcc","type":"Transition Metal","ionic_radius":"0.65","atomic_radius":"1.7","electronegativity":"1.83","first_ionization_potential":"7.9024","density":"7.874","melting_point_k":"1808.15","boiling_point_k":"3134","isotopes":"10","discoverer":"Prehistoric","year_of_discovery":"","specific_heat_capacity":"0.449","electron_configuration":"[Ar] 3d6 4s2","display_row":"4","display_column":"8\r"}