{"atomic_number":"27","element":"Cobalt","symbol":"Co","atomic_weight":"58.933195","period":"4","group":"9","phase":"solid","most_stable_crystal":"hex","type":"Transition Metal","ionic_radius":"0.75","atomic_radius":"1.7","electronegativity":"1.88","first_ionization_potential":"7.881","density":"8.86","melting_point_k":"1768.15","boiling_point_k":"3200","isotopes":"14","discoverer":"Brandt","year_of_discovery":"1735","specific_heat_capacity":"0.421","electron_configuration":"[Ar] 3d7 4s2","display_row":"4","display_column":"9\r"}