{"atomic_number":"28","element":"Nickel","symbol":"Ni","atomic_weight":"58.6934","period":"4","group":"10","phase":"solid","most_stable_crystal":"fcc","type":"Transition Metal","ionic_radius":"0.69","atomic_radius":"1.6","electronegativity":"1.91","first_ionization_potential":"7.6398","density":"8.912","melting_point_k":"1726.15","boiling_point_k":"3186","isotopes":"11","discoverer":"Cronstedt","year_of_discovery":"1751","specific_heat_capacity":"0.444","electron_configuration":"[Ar] 3d8 4s2","display_row":"4","display_column":"10\r"}