{"atomic_number":"29","element":"Copper","symbol":"Cu","atomic_weight":"63.546","period":"4","group":"11","phase":"solid","most_stable_crystal":"fcc","type":"Transition Metal","ionic_radius":"0.73","atomic_radius":"1.6","electronegativity":"1.9","first_ionization_potential":"7.7264","density":"8.96","melting_point_k":"1357.75","boiling_point_k":"2835","isotopes":"11","discoverer":"Prehistoric","year_of_discovery":"","specific_heat_capacity":"0.385","electron_configuration":"[Ar] 3d10 4s1","display_row":"4","display_column":"11\r"}