{
    "atomic_number": "2",
    "element": "Helium",
    "symbol": "He",
    "atomic_weight": "4.002602",
    "period": "1",
    "group": "18",
    "phase": "gas",
    "most_stable_crystal": "",
    "type": "Noble Gas",
    "ionic_radius": "",
    "atomic_radius": "0.49",
    "electronegativity": "",
    "first_ionization_potential": "24.5874",
    "density": "0.0001785",
    "melting_point_k": "",
    "boiling_point_k": "4.22",
    "isotopes": "5",
    "discoverer": "Janssen",
    "year_of_discovery": "1868",
    "specific_heat_capacity": "5.193",
    "electron_configuration": "1s2",
    "display_row": "1",
    "display_column": "18\r"
}