{"atomic_number":"30","element":"Zinc","symbol":"Zn","atomic_weight":"65.38","period":"4","group":"12","phase":"solid","most_stable_crystal":"hex","type":"Transition Metal","ionic_radius":"0.74","atomic_radius":"1.5","electronegativity":"1.65","first_ionization_potential":"9.3942","density":"7.134","melting_point_k":"692.88","boiling_point_k":"1180","isotopes":"15","discoverer":"Prehistoric","year_of_discovery":"","specific_heat_capacity":"0.388","electron_configuration":"[Ar] 3d10 4s2","display_row":"4","display_column":"12\r"}