{"atomic_number":"31","element":"Gallium","symbol":"Ga","atomic_weight":"69.723","period":"4","group":"13","phase":"solid","most_stable_crystal":"orth","type":"Metal","ionic_radius":"0.62","atomic_radius":"1.8","electronegativity":"1.81","first_ionization_potential":"5.9993","density":"5.907","melting_point_k":"302.91","boiling_point_k":"2477","isotopes":"14","discoverer":"de Boisbaudran","year_of_discovery":"1875","specific_heat_capacity":"0.371","electron_configuration":"[Ar] 3d10 4s2 4p1","display_row":"4","display_column":"13\r"}