{"atomic_number":"32","element":"Germanium","symbol":"Ge","atomic_weight":"72.64","period":"4","group":"14","phase":"solid","most_stable_crystal":"fcc","type":"Metalloid","ionic_radius":"0.53","atomic_radius":"1.5","electronegativity":"2.01","first_ionization_potential":"7.8994","density":"5.323","melting_point_k":"1211.45","boiling_point_k":"3106","isotopes":"17","discoverer":"Winkler","year_of_discovery":"1886","specific_heat_capacity":"0.32","electron_configuration":"[Ar] 3d10 4s2 4p2","display_row":"4","display_column":"14\r"}