{"atomic_number":"33","element":"Arsenic","symbol":"As","atomic_weight":"74.9216","period":"4","group":"15","phase":"solid","most_stable_crystal":"rho","type":"Metalloid","ionic_radius":"0.58","atomic_radius":"1.3","electronegativity":"2.18","first_ionization_potential":"9.7886","density":"5.776","melting_point_k":"1090.15","boiling_point_k":"887","isotopes":"14","discoverer":"Albertus Magnus","year_of_discovery":"1250","specific_heat_capacity":"0.329","electron_configuration":"[Ar] 3d10 4s2 4p3","display_row":"4","display_column":"15\r"}