{"atomic_number":"34","element":"Selenium","symbol":"Se","atomic_weight":"78.96","period":"4","group":"16","phase":"solid","most_stable_crystal":"hex","type":"Nonmetal","ionic_radius":"0.5","atomic_radius":"1.2","electronegativity":"2.55","first_ionization_potential":"9.7524","density":"4.809","melting_point_k":"494.15","boiling_point_k":"958","isotopes":"20","discoverer":"Berzelius","year_of_discovery":"1817","specific_heat_capacity":"0.321","electron_configuration":"[Ar] 3d10 4s2 4p4","display_row":"4","display_column":"16\r"}