{"atomic_number":"35","element":"Bromine","symbol":"Br","atomic_weight":"79.904","period":"4","group":"17","phase":"liq","most_stable_crystal":"","type":"Halogen","ionic_radius":"2","atomic_radius":"1.1","electronegativity":"2.96","first_ionization_potential":"11.8138","density":"3.122","melting_point_k":"266.05","boiling_point_k":"332","isotopes":"19","discoverer":"Balard","year_of_discovery":"1826","specific_heat_capacity":"0.474","electron_configuration":"[Ar] 3d10 4s2 4p5","display_row":"4","display_column":"17\r"}