{"atomic_number":"36","element":"Krypton","symbol":"Kr","atomic_weight":"83.798","period":"4","group":"18","phase":"gas","most_stable_crystal":"","type":"Noble Gas","ionic_radius":"","atomic_radius":"1","electronegativity":"","first_ionization_potential":"13.9996","density":"0.003733","melting_point_k":"115.93","boiling_point_k":"119.93","isotopes":"23","discoverer":"Ramsay and Travers","year_of_discovery":"1898","specific_heat_capacity":"0.248","electron_configuration":"[Ar] 3d10 4s2 4p6","display_row":"4","display_column":"18\r"}