{"atomic_number":"37","element":"Rubidium","symbol":"Rb","atomic_weight":"85.4678","period":"5","group":"1","phase":"solid","most_stable_crystal":"bcc","type":"Alkali Metal","ionic_radius":"1.5","atomic_radius":"3","electronegativity":"0.82","first_ionization_potential":"4.1771","density":"1.532","melting_point_k":"312.79","boiling_point_k":"961","isotopes":"20","discoverer":"Bunsen and Kirchoff","year_of_discovery":"1861","specific_heat_capacity":"0.363","electron_configuration":"[Kr] 5s1","display_row":"5","display_column":"1\r"}