{"atomic_number":"38","element":"Strontium","symbol":"Sr","atomic_weight":"87.62","period":"5","group":"2","phase":"solid","most_stable_crystal":"fcc","type":"Alkaline Earth Metal","ionic_radius":"1.1","atomic_radius":"2.5","electronegativity":"0.95","first_ionization_potential":"5.6949","density":"2.64","melting_point_k":"1042.15","boiling_point_k":"1655","isotopes":"18","discoverer":"Davy","year_of_discovery":"1808","specific_heat_capacity":"0.301","electron_configuration":"[Kr] 5s2","display_row":"5","display_column":"2\r"}