{"atomic_number":"39","element":"Yttrium","symbol":"Y","atomic_weight":"88.90585","period":"5","group":"3","phase":"solid","most_stable_crystal":"hex","type":"Transition Metal","ionic_radius":"0.9","atomic_radius":"2.3","electronegativity":"1.22","first_ionization_potential":"6.2173","density":"4.469","melting_point_k":"1799.15","boiling_point_k":"3609","isotopes":"21","discoverer":"Gadolin","year_of_discovery":"1794","specific_heat_capacity":"0.298","electron_configuration":"[Kr] 4d1 5s2","display_row":"5","display_column":"3\r"}