{
    "atomic_number": "3",
    "element": "Lithium",
    "symbol": "Li",
    "atomic_weight": "6.941",
    "period": "2",
    "group": "1",
    "phase": "solid",
    "most_stable_crystal": "bcc",
    "type": "Alkali Metal",
    "ionic_radius": "0.76",
    "atomic_radius": "2.1",
    "electronegativity": "0.98",
    "first_ionization_potential": "5.3917",
    "density": "0.534",
    "melting_point_k": "453.85",
    "boiling_point_k": "1615",
    "isotopes": "5",
    "discoverer": "Arfvedson",
    "year_of_discovery": "1817",
    "specific_heat_capacity": "3.582",
    "electron_configuration": "[He] 2s1",
    "display_row": "2",
    "display_column": "1\r"
}