{"atomic_number":"40","element":"Zirconium","symbol":"Zr","atomic_weight":"91.224","period":"5","group":"4","phase":"solid","most_stable_crystal":"hex","type":"Transition Metal","ionic_radius":"0.72","atomic_radius":"2.2","electronegativity":"1.33","first_ionization_potential":"6.6339","density":"6.506","melting_point_k":"2125.15","boiling_point_k":"4682","isotopes":"20","discoverer":"Klaproth","year_of_discovery":"1789","specific_heat_capacity":"0.278","electron_configuration":"[Kr] 4d2 5s2","display_row":"5","display_column":"4\r"}