{"atomic_number":"41","element":"Niobium","symbol":"Nb","atomic_weight":"92.90638","period":"5","group":"5","phase":"solid","most_stable_crystal":"bcc","type":"Transition Metal","ionic_radius":"0.69","atomic_radius":"2.1","electronegativity":"1.6","first_ionization_potential":"6.7589","density":"8.57","melting_point_k":"2741.15","boiling_point_k":"5017","isotopes":"24","discoverer":"Hatchett","year_of_discovery":"1801","specific_heat_capacity":"0.265","electron_configuration":"[Kr] 4d4 5s1","display_row":"5","display_column":"5\r"}