{"atomic_number":"42","element":"Molybdenum","symbol":"Mo","atomic_weight":"95.96","period":"5","group":"6","phase":"solid","most_stable_crystal":"bcc","type":"Transition Metal","ionic_radius":"0.65","atomic_radius":"2","electronegativity":"2.16","first_ionization_potential":"7.0924","density":"10.22","melting_point_k":"2890.15","boiling_point_k":"4912","isotopes":"20","discoverer":"Scheele","year_of_discovery":"1778","specific_heat_capacity":"0.251","electron_configuration":"[Kr] 4d5 5s1","display_row":"5","display_column":"6\r"}