{"atomic_number":"43","element":"Technetium","symbol":"Tc","atomic_weight":"98","period":"5","group":"7","phase":"artificial","most_stable_crystal":"hex","type":"Transition Metal","ionic_radius":"0.56","atomic_radius":"2","electronegativity":"1.9","first_ionization_potential":"7.28","density":"11.5","melting_point_k":"2473.15","boiling_point_k":"5150","isotopes":"23","discoverer":"Perrier and Segrï¿½","year_of_discovery":"1937","specific_heat_capacity":"","electron_configuration":"[Kr] 4d5 5s2","display_row":"5","display_column":"7\r"}