{"atomic_number":"44","element":"Ruthenium","symbol":"Ru","atomic_weight":"101.07","period":"5","group":"8","phase":"solid","most_stable_crystal":"hex","type":"Transition Metal","ionic_radius":"0.68","atomic_radius":"1.9","electronegativity":"2.2","first_ionization_potential":"7.3605","density":"12.37","melting_point_k":"2523.15","boiling_point_k":"4423","isotopes":"16","discoverer":"Klaus","year_of_discovery":"1844","specific_heat_capacity":"0.238","electron_configuration":"[Kr] 4d7 5s1","display_row":"5","display_column":"8\r"}