{"atomic_number":"45","element":"Rhodium","symbol":"Rh","atomic_weight":"102.9055","period":"5","group":"9","phase":"solid","most_stable_crystal":"fcc","type":"Transition Metal","ionic_radius":"0.68","atomic_radius":"1.8","electronegativity":"2.28","first_ionization_potential":"7.4589","density":"12.41","melting_point_k":"2239.15","boiling_point_k":"3968","isotopes":"20","discoverer":"Wollaston","year_of_discovery":"1803","specific_heat_capacity":"0.243","electron_configuration":"[Kr] 4d8 5s1","display_row":"5","display_column":"9\r"}