{"atomic_number":"46","element":"Palladium","symbol":"Pd","atomic_weight":"106.42","period":"5","group":"10","phase":"solid","most_stable_crystal":"fcc","type":"Transition Metal","ionic_radius":"0.86","atomic_radius":"1.8","electronegativity":"2.2","first_ionization_potential":"8.3369","density":"12.02","melting_point_k":"1825.15","boiling_point_k":"3236","isotopes":"21","discoverer":"Wollaston","year_of_discovery":"1803","specific_heat_capacity":"0.244","electron_configuration":"[Kr] 4d10","display_row":"5","display_column":"10\r"}