{"atomic_number":"47","element":"Silver","symbol":"Ag","atomic_weight":"107.8682","period":"5","group":"11","phase":"solid","most_stable_crystal":"fcc","type":"Transition Metal","ionic_radius":"1.3","atomic_radius":"1.8","electronegativity":"1.93","first_ionization_potential":"7.5762","density":"10.501","melting_point_k":"1234.15","boiling_point_k":"2435","isotopes":"27","discoverer":"Prehistoric","year_of_discovery":"","specific_heat_capacity":"0.235","electron_configuration":"[Kr] 4d10 5s1","display_row":"5","display_column":"11\r"}