{"atomic_number":"48","element":"Cadmium","symbol":"Cd","atomic_weight":"112.411","period":"5","group":"12","phase":"solid","most_stable_crystal":"hex","type":"Transition Metal","ionic_radius":"0.97","atomic_radius":"1.7","electronegativity":"1.69","first_ionization_potential":"8.9938","density":"8.69","melting_point_k":"594.33","boiling_point_k":"1040","isotopes":"22","discoverer":"Stromeyer","year_of_discovery":"1817","specific_heat_capacity":"0.232","electron_configuration":"[Kr] 4d10 5s2","display_row":"5","display_column":"12\r"}