{"atomic_number":"49","element":"Indium","symbol":"In","atomic_weight":"114.818","period":"5","group":"13","phase":"solid","most_stable_crystal":"tet","type":"Metal","ionic_radius":"0.8","atomic_radius":"2","electronegativity":"1.78","first_ionization_potential":"5.7864","density":"7.31","melting_point_k":"429.91","boiling_point_k":"2345","isotopes":"34","discoverer":"Reich and Richter","year_of_discovery":"1863","specific_heat_capacity":"0.233","electron_configuration":"[Kr] 4d10 5s2 5p1","display_row":"5","display_column":"13\r"}