{
    "atomic_number": "4",
    "element": "Beryllium",
    "symbol": "Be",
    "atomic_weight": "9.012182",
    "period": "2",
    "group": "2",
    "phase": "solid",
    "most_stable_crystal": "hex",
    "type": "Alkaline Earth Metal",
    "ionic_radius": "0.35",
    "atomic_radius": "1.4",
    "electronegativity": "1.57",
    "first_ionization_potential": "9.3227",
    "density": "1.85",
    "melting_point_k": "1560.15",
    "boiling_point_k": "2742",
    "isotopes": "6",
    "discoverer": "Vaulquelin",
    "year_of_discovery": "1798",
    "specific_heat_capacity": "1.825",
    "electron_configuration": "[He] 2s2",
    "display_row": "2",
    "display_column": "2\r"
}