{"atomic_number":"50","element":"Tin","symbol":"Sn","atomic_weight":"118.71","period":"5","group":"14","phase":"solid","most_stable_crystal":"tet","type":"Metal","ionic_radius":"0.69","atomic_radius":"1.7","electronegativity":"1.96","first_ionization_potential":"7.3439","density":"7.287","melting_point_k":"505.21","boiling_point_k":"2875","isotopes":"28","discoverer":"Prehistoric","year_of_discovery":"","specific_heat_capacity":"0.228","electron_configuration":"[Kr] 4d10 5s2 5p2","display_row":"5","display_column":"14\r"}