{"atomic_number":"51","element":"Antimony","symbol":"Sb","atomic_weight":"121.76","period":"5","group":"15","phase":"solid","most_stable_crystal":"rho","type":"Metalloid","ionic_radius":"0.76","atomic_radius":"1.5","electronegativity":"2.05","first_ionization_potential":"8.6084","density":"6.685","melting_point_k":"904.05","boiling_point_k":"1860","isotopes":"29","discoverer":"Early historic times","year_of_discovery":"","specific_heat_capacity":"0.207","electron_configuration":"[Kr] 4d10 5s2 5p3","display_row":"5","display_column":"15\r"}