{"atomic_number":"52","element":"Tellurium","symbol":"Te","atomic_weight":"127.6","period":"5","group":"16","phase":"solid","most_stable_crystal":"hex","type":"Metalloid","ionic_radius":"0.97","atomic_radius":"1.4","electronegativity":"2.1","first_ionization_potential":"9.0096","density":"6.232","melting_point_k":"722.8","boiling_point_k":"1261","isotopes":"29","discoverer":"von Reichenstein","year_of_discovery":"1782","specific_heat_capacity":"0.202","electron_configuration":"[Kr] 4d10 5s2 5p4","display_row":"5","display_column":"16\r"}