{"atomic_number":"53","element":"Iodine","symbol":"I","atomic_weight":"126.90447","period":"5","group":"17","phase":"solid","most_stable_crystal":"orth","type":"Halogen","ionic_radius":"2.2","atomic_radius":"1.3","electronegativity":"2.66","first_ionization_potential":"10.4513","density":"4.93","melting_point_k":"386.65","boiling_point_k":"457.4","isotopes":"24","discoverer":"Courtois","year_of_discovery":"1811","specific_heat_capacity":"0.214","electron_configuration":"[Kr] 4d10 5s2 5p5","display_row":"5","display_column":"17\r"}