{"atomic_number":"54","element":"Xenon","symbol":"Xe","atomic_weight":"131.293","period":"5","group":"18","phase":"gas","most_stable_crystal":"gas","type":"Noble Gas","ionic_radius":"","atomic_radius":"1.2","electronegativity":"","first_ionization_potential":"12.1298","density":"0.005887","melting_point_k":"161.45","boiling_point_k":"165.03","isotopes":"31","discoverer":"Ramsay and Travers","year_of_discovery":"1898","specific_heat_capacity":"0.158","electron_configuration":"[Kr] 4d10 5s2 5p6","display_row":"5","display_column":"18\r"}