{"atomic_number":"55","element":"Cesium","symbol":"Cs","atomic_weight":"132.9054519","period":"6","group":"1","phase":"solid","most_stable_crystal":"","type":"Alkali Metal","ionic_radius":"1.7","atomic_radius":"3.3","electronegativity":"0.79","first_ionization_potential":"3.8939","density":"1.873","melting_point_k":"301.7","boiling_point_k":"944","isotopes":"22","discoverer":"Bunsen and Kirchoff","year_of_discovery":"1860","specific_heat_capacity":"0.242","electron_configuration":"[Xe] 6s1","display_row":"6","display_column":"1\r"}