{"atomic_number":"56","element":"Barium","symbol":"Ba","atomic_weight":"137.327","period":"6","group":"2","phase":"solid","most_stable_crystal":"bcc","type":"Alkaline Earth Metal","ionic_radius":"1.4","atomic_radius":"2.8","electronegativity":"0.89","first_ionization_potential":"5.2117","density":"3.594","melting_point_k":"1002.15","boiling_point_k":"2170","isotopes":"25","discoverer":"Davy","year_of_discovery":"1808","specific_heat_capacity":"0.204","electron_configuration":"[Xe] 6s2","display_row":"6","display_column":"2\r"}