{"atomic_number":"57","element":"Lanthanum","symbol":"La","atomic_weight":"138.90547","period":"6","group":"3","phase":"solid","most_stable_crystal":"hex","type":"Lanthanide","ionic_radius":"1.1","atomic_radius":"2.7","electronegativity":"1.1","first_ionization_potential":"5.5769","density":"6.145","melting_point_k":"1193.15","boiling_point_k":"3737","isotopes":"19","discoverer":"Mosander","year_of_discovery":"1839","specific_heat_capacity":"0.195","electron_configuration":"[Xe] 5d1 6s2","display_row":"8","display_column":"3\r"}