{
    "atomic_number": "58",
    "element": "Cerium",
    "symbol": "Ce",
    "atomic_weight": "140.116",
    "period": "6",
    "group": "19",
    "phase": "solid",
    "most_stable_crystal": "fcc",
    "type": "Lanthanide",
    "ionic_radius": "1",
    "atomic_radius": "2.7",
    "electronegativity": "1.12",
    "first_ionization_potential": "5.5387",
    "density": "6.77",
    "melting_point_k": "1071.15",
    "boiling_point_k": "3716",
    "isotopes": "19",
    "discoverer": "Berzelius",
    "year_of_discovery": "1803",
    "specific_heat_capacity": "0.192",
    "electron_configuration": "[Xe] 4f1 5d1 6s2",
    "display_row": "8",
    "display_column": "4\r"
}