{"atomic_number":"59","element":"Praseodymium","symbol":"Pr","atomic_weight":"140.90765","period":"6","group":"20","phase":"solid","most_stable_crystal":"hex","type":"Lanthanide","ionic_radius":"1","atomic_radius":"2.7","electronegativity":"1.13","first_ionization_potential":"5.473","density":"6.773","melting_point_k":"1204.15","boiling_point_k":"3793","isotopes":"15","discoverer":"von Welsbach","year_of_discovery":"1885","specific_heat_capacity":"0.193","electron_configuration":"[Xe] 4f3 6s2","display_row":"8","display_column":"5\r"}