{
    "atomic_number": "5",
    "element": "Boron",
    "symbol": "B",
    "atomic_weight": "10.811",
    "period": "2",
    "group": "13",
    "phase": "solid",
    "most_stable_crystal": "rho",
    "type": "Metalloid",
    "ionic_radius": "0.23",
    "atomic_radius": "1.2",
    "electronegativity": "2.04",
    "first_ionization_potential": "8.298",
    "density": "2.34",
    "melting_point_k": "2573.15",
    "boiling_point_k": "4200",
    "isotopes": "6",
    "discoverer": "Gay-Lussac",
    "year_of_discovery": "1808",
    "specific_heat_capacity": "1.026",
    "electron_configuration": "[He] 2s2 2p1",
    "display_row": "2",
    "display_column": "13\r"
}