{"atomic_number":"60","element":"Neodymium","symbol":"Nd","atomic_weight":"144.242","period":"6","group":"21","phase":"solid","most_stable_crystal":"hex","type":"Lanthanide","ionic_radius":"1","atomic_radius":"2.6","electronegativity":"1.14","first_ionization_potential":"5.525","density":"7.007","melting_point_k":"1289.15","boiling_point_k":"3347","isotopes":"16","discoverer":"von Welsbach","year_of_discovery":"1885","specific_heat_capacity":"0.19","electron_configuration":"[Xe] 4f4 6s2","display_row":"8","display_column":"6\r"}