{"atomic_number":"61","element":"Promethium","symbol":"Pm","atomic_weight":"145","period":"6","group":"22","phase":"artificial","most_stable_crystal":"hex","type":"Lanthanide","ionic_radius":"0.98","atomic_radius":"2.6","electronegativity":"1.13","first_ionization_potential":"5.582","density":"7.26","melting_point_k":"1204.15","boiling_point_k":"3273","isotopes":"14","discoverer":"Marinsky et al.","year_of_discovery":"1945","specific_heat_capacity":"","electron_configuration":"[Xe] 4f5 6s2","display_row":"8","display_column":"7\r"}