{"atomic_number":"62","element":"Samarium","symbol":"Sm","atomic_weight":"150.36","period":"6","group":"23","phase":"solid","most_stable_crystal":"hex","type":"Lanthanide","ionic_radius":"0.96","atomic_radius":"2.6","electronegativity":"1.17","first_ionization_potential":"5.6437","density":"7.52","melting_point_k":"1345.15","boiling_point_k":"2067","isotopes":"17","discoverer":"Boisbaudran","year_of_discovery":"1879","specific_heat_capacity":"0.197","electron_configuration":"[Xe] 4f6 6s2","display_row":"8","display_column":"8\r"}