{"atomic_number":"63","element":"Europium","symbol":"Eu","atomic_weight":"151.964","period":"6","group":"24","phase":"solid","most_stable_crystal":"bcc","type":"Lanthanide","ionic_radius":"0.95","atomic_radius":"2.6","electronegativity":"1.2","first_ionization_potential":"5.6704","density":"5.243","melting_point_k":"1095.15","boiling_point_k":"1802","isotopes":"21","discoverer":"Demarcay","year_of_discovery":"1901","specific_heat_capacity":"0.182","electron_configuration":"[Xe] 4f7 6s2","display_row":"8","display_column":"9\r"}