{"atomic_number":"64","element":"Gadolinium","symbol":"Gd","atomic_weight":"157.25","period":"6","group":"25","phase":"solid","most_stable_crystal":"hex","type":"Lanthanide","ionic_radius":"0.94","atomic_radius":"2.5","electronegativity":"1.2","first_ionization_potential":"6.1501","density":"7.895","melting_point_k":"1585.15","boiling_point_k":"3546","isotopes":"17","discoverer":"de Marignac","year_of_discovery":"1880","specific_heat_capacity":"0.236","electron_configuration":"[Xe] 4f7 5d1 6s2","display_row":"8","display_column":"10\r"}