{"atomic_number":"65","element":"Terbium","symbol":"Tb","atomic_weight":"158.92535","period":"6","group":"26","phase":"solid","most_stable_crystal":"hex","type":"Lanthanide","ionic_radius":"0.92","atomic_radius":"2.5","electronegativity":"1.2","first_ionization_potential":"5.8638","density":"8.229","melting_point_k":"1630.15","boiling_point_k":"3503","isotopes":"24","discoverer":"Mosander","year_of_discovery":"1843","specific_heat_capacity":"0.182","electron_configuration":"[Xe] 4f9 6s2","display_row":"8","display_column":"11\r"}