{"atomic_number":"66","element":"Dysprosium","symbol":"Dy","atomic_weight":"162.5","period":"6","group":"27","phase":"solid","most_stable_crystal":"hex","type":"Lanthanide","ionic_radius":"0.91","atomic_radius":"2.5","electronegativity":"1.22","first_ionization_potential":"5.9389","density":"8.55","melting_point_k":"1680.15","boiling_point_k":"2840","isotopes":"21","discoverer":"de Boisbaudran","year_of_discovery":"1886","specific_heat_capacity":"0.17","electron_configuration":"[Xe] 4f10 6s2","display_row":"8","display_column":"12\r"}