{"atomic_number":"67","element":"Holmium","symbol":"Ho","atomic_weight":"164.93032","period":"6","group":"28","phase":"solid","most_stable_crystal":"hex","type":"Lanthanide","ionic_radius":"0.9","atomic_radius":"2.5","electronegativity":"1.23","first_ionization_potential":"6.0215","density":"8.795","melting_point_k":"1743.15","boiling_point_k":"2993","isotopes":"29","discoverer":"Delafontaine and Soret","year_of_discovery":"1878","specific_heat_capacity":"0.165","electron_configuration":"[Xe] 4f11 6s2","display_row":"8","display_column":"13\r"}