{"atomic_number":"68","element":"Erbium","symbol":"Er","atomic_weight":"167.259","period":"6","group":"29","phase":"solid","most_stable_crystal":"hex","type":"Lanthanide","ionic_radius":"0.88","atomic_radius":"2.5","electronegativity":"1.24","first_ionization_potential":"6.1077","density":"9.066","melting_point_k":"1795.15","boiling_point_k":"3503","isotopes":"16","discoverer":"Mosander","year_of_discovery":"1843","specific_heat_capacity":"0.168","electron_configuration":"[Xe] 4f12 6s2","display_row":"8","display_column":"14\r"}