{"atomic_number":"69","element":"Thulium","symbol":"Tm","atomic_weight":"168.93421","period":"6","group":"30","phase":"solid","most_stable_crystal":"hex","type":"Lanthanide","ionic_radius":"0.87","atomic_radius":"2.4","electronegativity":"1.25","first_ionization_potential":"6.1843","density":"9.321","melting_point_k":"1818.15","boiling_point_k":"2223","isotopes":"18","discoverer":"Cleve","year_of_discovery":"1879","specific_heat_capacity":"0.16","electron_configuration":"[Xe] 4f13 6s2","display_row":"8","display_column":"15\r"}