{
    "atomic_number": "6",
    "element": "Carbon",
    "symbol": "C",
    "atomic_weight": "12.0107",
    "period": "2",
    "group": "14",
    "phase": "solid",
    "most_stable_crystal": "hex",
    "type": "Nonmetal",
    "ionic_radius": "",
    "atomic_radius": "0.91",
    "electronegativity": "2.55",
    "first_ionization_potential": "11.2603",
    "density": "2.267",
    "melting_point_k": "3948.15",
    "boiling_point_k": "4300",
    "isotopes": "7",
    "discoverer": "Prehistoric",
    "year_of_discovery": "",
    "specific_heat_capacity": "0.709",
    "electron_configuration": "[He] 2s2 2p2",
    "display_row": "2",
    "display_column": "14\r"
}