{"atomic_number":"70","element":"Ytterbium","symbol":"Yb","atomic_weight":"173.054","period":"6","group":"31","phase":"solid","most_stable_crystal":"fcc","type":"Lanthanide","ionic_radius":"0.86","atomic_radius":"2.4","electronegativity":"1.1","first_ionization_potential":"6.2542","density":"6.965","melting_point_k":"1097.15","boiling_point_k":"1469","isotopes":"16","discoverer":"Marignac","year_of_discovery":"1878","specific_heat_capacity":"0.155","electron_configuration":"[Xe] 4f14 6s2","display_row":"8","display_column":"16\r"}