{"atomic_number":"71","element":"Lutetium","symbol":"Lu","atomic_weight":"174.9668","period":"6","group":"32","phase":"solid","most_stable_crystal":"hex","type":"Lanthanide","ionic_radius":"0.85","atomic_radius":"2.3","electronegativity":"1.27","first_ionization_potential":"5.4259","density":"9.84","melting_point_k":"1936.15","boiling_point_k":"3675","isotopes":"22","discoverer":"Urbain/ von Welsbach","year_of_discovery":"1907","specific_heat_capacity":"0.154","electron_configuration":"[Xe] 4f14 5d1 6s2","display_row":"8","display_column":"17\r"}