{"atomic_number":"72","element":"Hafnium","symbol":"Hf","atomic_weight":"178.49","period":"6","group":"4","phase":"solid","most_stable_crystal":"hex","type":"Transition Metal","ionic_radius":"0.71","atomic_radius":"2.2","electronegativity":"1.3","first_ionization_potential":"6.8251","density":"13.31","melting_point_k":"2500.15","boiling_point_k":"4876","isotopes":"17","discoverer":"Coster and von Hevesy","year_of_discovery":"1923","specific_heat_capacity":"0.144","electron_configuration":"[Xe] 4f14 5d2 6s2","display_row":"6","display_column":"4\r"}