{"atomic_number":"73","element":"Tantalum","symbol":"Ta","atomic_weight":"180.94788","period":"6","group":"5","phase":"solid","most_stable_crystal":"bcc","type":"Transition Metal","ionic_radius":"0.64","atomic_radius":"2.1","electronegativity":"1.5","first_ionization_potential":"7.5496","density":"16.654","melting_point_k":"3269.15","boiling_point_k":"5731","isotopes":"19","discoverer":"Ekeberg","year_of_discovery":"1801","specific_heat_capacity":"0.14","electron_configuration":"[Xe] 4f14 5d3 6s2","display_row":"6","display_column":"5\r"}