{"atomic_number":"74","element":"Wolfram","symbol":"W","atomic_weight":"183.84","period":"6","group":"6","phase":"solid","most_stable_crystal":"bcc","type":"Transition Metal","ionic_radius":"0.62","atomic_radius":"2","electronegativity":"2.36","first_ionization_potential":"7.864","density":"19.25","melting_point_k":"3680.15","boiling_point_k":"5828","isotopes":"22","discoverer":"J. and F. d'Elhuyar","year_of_discovery":"1783","specific_heat_capacity":"0.132","electron_configuration":"[Xe] 4f14 5d4 6s2","display_row":"6","display_column":"6\r"}