{"atomic_number":"75","element":"Rhenium","symbol":"Re","atomic_weight":"186.207","period":"6","group":"7","phase":"solid","most_stable_crystal":"hex","type":"Transition Metal","ionic_radius":"0.56","atomic_radius":"2","electronegativity":"1.9","first_ionization_potential":"7.8335","density":"21.02","melting_point_k":"3453.15","boiling_point_k":"5869","isotopes":"21","discoverer":"\"Noddack","year_of_discovery":" Berg","specific_heat_capacity":" and Tacke\"","electron_configuration":"1925","display_row":"0.137","display_column":"[Xe] 4f14 5d5 6s2"}