{"atomic_number":"76","element":"Osmium","symbol":"Os","atomic_weight":"190.23","period":"6","group":"8","phase":"solid","most_stable_crystal":"hex","type":"Transition Metal","ionic_radius":"0.63","atomic_radius":"1.9","electronegativity":"2.2","first_ionization_potential":"8.4382","density":"22.61","melting_point_k":"3300.15","boiling_point_k":"5285","isotopes":"19","discoverer":"Tennant","year_of_discovery":"1803","specific_heat_capacity":"0.13","electron_configuration":"[Xe] 4f14 5d6 6s2","display_row":"6","display_column":"8\r"}