{"atomic_number":"77","element":"Iridium","symbol":"Ir","atomic_weight":"192.217","period":"6","group":"9","phase":"solid","most_stable_crystal":"fcc","type":"Transition Metal","ionic_radius":"0.63","atomic_radius":"1.9","electronegativity":"2.2","first_ionization_potential":"8.967","density":"22.56","melting_point_k":"2716.15","boiling_point_k":"4701","isotopes":"25","discoverer":"Tennant","year_of_discovery":"1804","specific_heat_capacity":"0.131","electron_configuration":"[Xe] 4f14 5d7 6s2","display_row":"6","display_column":"9\r"}