{"atomic_number":"78","element":"Platinum","symbol":"Pt","atomic_weight":"195.084","period":"6","group":"10","phase":"solid","most_stable_crystal":"fcc","type":"Transition Metal","ionic_radius":"0.63","atomic_radius":"1.8","electronegativity":"2.28","first_ionization_potential":"8.9587","density":"21.46","melting_point_k":"2045.15","boiling_point_k":"4098","isotopes":"32","discoverer":"Ulloa/Wood","year_of_discovery":"1735","specific_heat_capacity":"0.133","electron_configuration":"[Xe] 4f14 5d9 6s1","display_row":"6","display_column":"10\r"}