{"atomic_number":"79","element":"Gold","symbol":"Au","atomic_weight":"196.966569","period":"6","group":"11","phase":"solid","most_stable_crystal":"fcc","type":"Transition Metal","ionic_radius":"0.85","atomic_radius":"1.8","electronegativity":"2.54","first_ionization_potential":"9.2255","density":"19.282","melting_point_k":"1337.73","boiling_point_k":"3129","isotopes":"21","discoverer":"Prehistoric","year_of_discovery":"","specific_heat_capacity":"0.129","electron_configuration":"[Xe] 4f14 5d10 6s1","display_row":"6","display_column":"11\r"}