{
    "atomic_number": "7",
    "element": "Nitrogen",
    "symbol": "N",
    "atomic_weight": "14.0067",
    "period": "2",
    "group": "15",
    "phase": "gas",
    "most_stable_crystal": "",
    "type": "Nonmetal",
    "ionic_radius": "0.13",
    "atomic_radius": "0.75",
    "electronegativity": "3.04",
    "first_ionization_potential": "14.5341",
    "density": "0.0012506",
    "melting_point_k": "63.29",
    "boiling_point_k": "77.36",
    "isotopes": "8",
    "discoverer": "Rutherford",
    "year_of_discovery": "1772",
    "specific_heat_capacity": "1.04",
    "electron_configuration": "[He] 2s2 2p3",
    "display_row": "2",
    "display_column": "15\r"
}