{"atomic_number":"80","element":"Mercury","symbol":"Hg","atomic_weight":"200.59","period":"6","group":"12","phase":"liq","most_stable_crystal":"","type":"Transition Metal","ionic_radius":"1","atomic_radius":"1.8","electronegativity":"2","first_ionization_potential":"10.4375","density":"13.5336","melting_point_k":"234.43","boiling_point_k":"630","isotopes":"26","discoverer":"Prehistoric","year_of_discovery":"","specific_heat_capacity":"0.14","electron_configuration":"[Xe] 4f14 5d10 6s2","display_row":"6","display_column":"12\r"}