{"atomic_number":"81","element":"Thallium","symbol":"Tl","atomic_weight":"204.3833","period":"6","group":"13","phase":"solid","most_stable_crystal":"hex","type":"Metal","ionic_radius":"1.5","atomic_radius":"2.1","electronegativity":"2.04","first_ionization_potential":"6.1082","density":"11.85","melting_point_k":"577.15","boiling_point_k":"1746","isotopes":"28","discoverer":"Crookes","year_of_discovery":"1861","specific_heat_capacity":"0.129","electron_configuration":"[Xe] 4f14 5d10 6s2 6p1","display_row":"6","display_column":"13\r"}