{"atomic_number":"82","element":"Lead","symbol":"Pb","atomic_weight":"207.2","period":"6","group":"14","phase":"solid","most_stable_crystal":"fcc","type":"Metal","ionic_radius":"1.2","atomic_radius":"1.8","electronegativity":"2.33","first_ionization_potential":"7.4167","density":"11.342","melting_point_k":"600.75","boiling_point_k":"2022","isotopes":"29","discoverer":"Prehistoric","year_of_discovery":"","specific_heat_capacity":"0.129","electron_configuration":"[Xe] 4f14 5d10 6s2 6p2","display_row":"6","display_column":"14\r"}