{"atomic_number":"83","element":"Bismuth","symbol":"Bi","atomic_weight":"208.9804","period":"6","group":"15","phase":"solid","most_stable_crystal":"rho","type":"Metal","ionic_radius":"1","atomic_radius":"1.6","electronegativity":"2.02","first_ionization_potential":"7.2856","density":"9.807","melting_point_k":"544.67","boiling_point_k":"1837","isotopes":"19","discoverer":"Geoffroy the Younger","year_of_discovery":"1753","specific_heat_capacity":"0.122","electron_configuration":"[Xe] 4f14 5d10 6s2 6p3","display_row":"6","display_column":"15\r"}