{"atomic_number":"84","element":"Polonium","symbol":"Po","atomic_weight":"210","period":"6","group":"16","phase":"solid","most_stable_crystal":"cub","type":"Metalloid","ionic_radius":"2.3","atomic_radius":"1.5","electronegativity":"2","first_ionization_potential":"8.417","density":"9.32","melting_point_k":"527.15","boiling_point_k":"1235","isotopes":"34","discoverer":"Curie","year_of_discovery":"1898","specific_heat_capacity":"","electron_configuration":"[Xe] 4f14 5d10 6s2 6p4","display_row":"6","display_column":"16\r"}