{"atomic_number":"85","element":"Astatine","symbol":"At","atomic_weight":"210","period":"6","group":"17","phase":"solid","most_stable_crystal":"","type":"Noble Gas","ionic_radius":"","atomic_radius":"1.4","electronegativity":"2.2","first_ionization_potential":"9.3","density":"7","melting_point_k":"575.15","boiling_point_k":"610","isotopes":"21","discoverer":"Corson et al.","year_of_discovery":"1940","specific_heat_capacity":"","electron_configuration":"[Xe] 4f14 5d10 6s2 6p5","display_row":"6","display_column":"17\r"}