{"atomic_number":"86","element":"Radon","symbol":"Rn","atomic_weight":"222","period":"6","group":"18","phase":"gas","most_stable_crystal":"","type":"Alkali Metal","ionic_radius":"","atomic_radius":"1.3","electronegativity":"","first_ionization_potential":"10.7485","density":"0.00973","melting_point_k":"202.15","boiling_point_k":"211.3","isotopes":"20","discoverer":"Dorn","year_of_discovery":"1900","specific_heat_capacity":"0.094","electron_configuration":"[Xe] 4f14 5d10 6s2 6p6","display_row":"6","display_column":"18\r"}