{"atomic_number":"87","element":"Francium","symbol":"Fr","atomic_weight":"223","period":"7","group":"1","phase":"solid","most_stable_crystal":"bcc","type":"Alkaline Earth Metal","ionic_radius":"1.8","atomic_radius":"","electronegativity":"0.7","first_ionization_potential":"4.0727","density":"1.87","melting_point_k":"300.15","boiling_point_k":"950","isotopes":"21","discoverer":"Perey","year_of_discovery":"1939","specific_heat_capacity":"","electron_configuration":"[Rn] 7s1","display_row":"7","display_column":"1\r"}