{"atomic_number":"88","element":"Radium","symbol":"Ra","atomic_weight":"226","period":"7","group":"2","phase":"solid","most_stable_crystal":"bcc","type":"Actinide","ionic_radius":"1.4","atomic_radius":"","electronegativity":"0.9","first_ionization_potential":"5.2784","density":"5.5","melting_point_k":"973.15","boiling_point_k":"2010","isotopes":"15","discoverer":"Pierre and Marie Curie","year_of_discovery":"1898","specific_heat_capacity":"","electron_configuration":"[Rn] 7s2","display_row":"7","display_column":"2\r"}