{"atomic_number":"89","element":"Actinium","symbol":"Ac","atomic_weight":"227","period":"7","group":"3","phase":"solid","most_stable_crystal":"fcc","type":"Actinide","ionic_radius":"1.1","atomic_radius":"","electronegativity":"1.1","first_ionization_potential":"5.17","density":"10.07","melting_point_k":"1323.15","boiling_point_k":"3471","isotopes":"11","discoverer":"Debierne/Giesel","year_of_discovery":"1899","specific_heat_capacity":"0.12","electron_configuration":"[Rn] 6d1 7s2","display_row":"9","display_column":"3\r"}