{
    "atomic_number": "8",
    "element": "Oxygen",
    "symbol": "O",
    "atomic_weight": "15.9994",
    "period": "2",
    "group": "16",
    "phase": "gas",
    "most_stable_crystal": "",
    "type": "Nonmetal",
    "ionic_radius": "1.4",
    "atomic_radius": "0.65",
    "electronegativity": "3.44",
    "first_ionization_potential": "13.6181",
    "density": "0.001429",
    "melting_point_k": "50.5",
    "boiling_point_k": "90.2",
    "isotopes": "8",
    "discoverer": "Priestley/Scheele",
    "year_of_discovery": "1774",
    "specific_heat_capacity": "0.918",
    "electron_configuration": "[He] 2s2 2p4",
    "display_row": "2",
    "display_column": "16\r"
}