{"atomic_number":"90","element":"Thorium","symbol":"Th","atomic_weight":"232.03806","period":"7","group":"19","phase":"solid","most_stable_crystal":"fcc","type":"Actinide","ionic_radius":"0.97","atomic_radius":"","electronegativity":"1.3","first_ionization_potential":"6.3067","density":"11.72","melting_point_k":"2028.15","boiling_point_k":"5061","isotopes":"12","discoverer":"Berzelius","year_of_discovery":"1828","specific_heat_capacity":"0.113","electron_configuration":"[Rn] 6d2 7s2","display_row":"9","display_column":"4\r"}