{"atomic_number":"91","element":"Protactinium","symbol":"Pa","atomic_weight":"231.03588","period":"7","group":"20","phase":"solid","most_stable_crystal":"orth","type":"Actinide","ionic_radius":"0.78","atomic_radius":"","electronegativity":"1.5","first_ionization_potential":"5.89","density":"15.37","melting_point_k":"1873.15","boiling_point_k":"4300","isotopes":"14","discoverer":"Hahn and Meitner","year_of_discovery":"1917","specific_heat_capacity":"","electron_configuration":"[Rn] 5f2 6d1 7s2","display_row":"9","display_column":"5\r"}