{"atomic_number":"93","element":"Neptunium","symbol":"Np","atomic_weight":"237","period":"7","group":"22","phase":"artificial","most_stable_crystal":"orth","type":"Actinide","ionic_radius":"0.75","atomic_radius":"","electronegativity":"1.36","first_ionization_potential":"6.2657","density":"20.45","melting_point_k":"913.15","boiling_point_k":"4273","isotopes":"153","discoverer":"McMillan and Abelson","year_of_discovery":"1940","specific_heat_capacity":"","electron_configuration":"[Rn] 5f4 6d1 7s2","display_row":"9","display_column":"7\r"}