{"atomic_number":"95","element":"Americium","symbol":"Am","atomic_weight":"243","period":"7","group":"24","phase":"artificial","most_stable_crystal":"hex","type":"Actinide","ionic_radius":"0.98","atomic_radius":"","electronegativity":"1.3","first_ionization_potential":"5.9738","density":"13.69","melting_point_k":"1267.15","boiling_point_k":"2880","isotopes":"133","discoverer":"Seaborg et al.","year_of_discovery":"1944","specific_heat_capacity":"","electron_configuration":"[Rn] 5f7 7s2","display_row":"9","display_column":"9\r"}