{"atomic_number":"96","element":"Curium","symbol":"Cm","atomic_weight":"247","period":"7","group":"25","phase":"artificial","most_stable_crystal":"hex","type":"Actinide","ionic_radius":"0.97","atomic_radius":"","electronegativity":"1.3","first_ionization_potential":"5.9915","density":"13.51","melting_point_k":"1340.15","boiling_point_k":"3383","isotopes":"133","discoverer":"Seaborg et al.","year_of_discovery":"1944","specific_heat_capacity":"","electron_configuration":"","display_row":"9","display_column":"10\r"}