{"atomic_number":"97","element":"Berkelium","symbol":"Bk","atomic_weight":"247","period":"7","group":"26","phase":"artificial","most_stable_crystal":"hex","type":"Actinide","ionic_radius":"0.95","atomic_radius":"","electronegativity":"1.3","first_ionization_potential":"6.1979","density":"14.79","melting_point_k":"1259.15","boiling_point_k":"983","isotopes":"83","discoverer":"Seaborg et al.","year_of_discovery":"1949","specific_heat_capacity":"","electron_configuration":"","display_row":"9","display_column":"11\r"}