{"atomic_number":"98","element":"Californium","symbol":"Cf","atomic_weight":"251","period":"7","group":"27","phase":"artificial","most_stable_crystal":"hex","type":"Actinide","ionic_radius":"0.93","atomic_radius":"","electronegativity":"1.3","first_ionization_potential":"6.2817","density":"15.1","melting_point_k":"1925.15","boiling_point_k":"1173","isotopes":"123","discoverer":"Seaborg et al.","year_of_discovery":"1950","specific_heat_capacity":"","electron_configuration":"","display_row":"9","display_column":"12\r"}