{"atomic_number":"99","element":"Einsteinium","symbol":"Es","atomic_weight":"252","period":"7","group":"28","phase":"artificial","most_stable_crystal":"hex","type":"Actinide","ionic_radius":"","atomic_radius":"","electronegativity":"1.3","first_ionization_potential":"6.42","density":"13.5","melting_point_k":"1133.15","boiling_point_k":"","isotopes":"123","discoverer":"Ghiorso et al.","year_of_discovery":"1952","specific_heat_capacity":"","electron_configuration":"","display_row":"9","display_column":"13\r"}