{
    "atomic_number": "9",
    "element": "Fluorine",
    "symbol": "F",
    "atomic_weight": "18.9984032",
    "period": "2",
    "group": "17",
    "phase": "gas",
    "most_stable_crystal": "",
    "type": "Halogen",
    "ionic_radius": "1.3",
    "atomic_radius": "0.57",
    "electronegativity": "3.98",
    "first_ionization_potential": "17.4228",
    "density": "0.001696",
    "melting_point_k": "53.63",
    "boiling_point_k": "85.03",
    "isotopes": "6",
    "discoverer": "Moissan",
    "year_of_discovery": "1886",
    "specific_heat_capacity": "0.824",
    "electron_configuration": "[He] 2s2 2p5",
    "display_row": "2",
    "display_column": "17\r"
}